# vtk DataFile Version 2.0
track0
ASCII
DATASET POLYDATA
POINTS 12278 float
-0.0205 0.001 1e-05
-0.02052 0.000999216 1e-05
-0.02054 0.000998592 1e-05
-0.02056 0.000998126 1e-05
-0.02058 0.000997818 1e-05
-0.0206 0.000997665 1e-05
-0.0205 0.00367778 1e-05
-0.02052 0.00367703 1e-05
-0.02054 0.00367643 1e-05
-0.02056 0.00367599 1e-05
-0.02058 0.00367569 1e-05
-0.0206 0.00367554 1e-05
-0.0205 0.00635556 1e-05
-0.02052 0.00635527 1e-05
-0.02054 0.00635505 1e-05
-0.02056 0.00635488 1e-05
-0.02058 0.00635476 1e-05
-0.0206 0.00635471 1e-05
-0.0205 0.00903333 1e-05
-0.02052 0.00903311 1e-05
-0.02054 0.00903293 1e-05
-0.02056 0.0090328 1e-05
-0.02058 0.00903271 1e-05
-0.0206 0.00903266 1e-05
-0.0205 0.0117111 1e-05
-0.02052 0.0117111 1e-05
-0.02054 0.011711 1e-05
-0.02056 0.011711 1e-05
-0.02058 0.011711 1e-05
-0.0206 0.011711 1e-05
-0.0205 0.0143889 1e-05
-0.02052 0.014389 1e-05
-0.02054 0.014389 1e-05
-0.02056 0.0143891 1e-05
-0.02058 0.0143891 1e-05
-0.0206 0.0143891 1e-05
-0.0205 0.0170667 1e-05
-0.02052 0.017067 1e-05
-0.02054 0.0170672 1e-05
-0.02056 0.0170674 1e-05
-0.02058 0.0170675 1e-05
-0.0206 0.0170676 1e-05
-0.0205 0.0197444 1e-05
-0.02052 0.019745 1e-05
-0.02054 0.0197454 1e-05
-0.02056 0.0197457 1e-05
-0.02058 0.0197459 1e-05
-0.0206 0.019746 1e-05
-0.0205 0.0224222 1e-05
-0.02052 0.022423 1e-05
-0.02054 0.0224236 1e-05
-0.02056 0.0224241 1e-05
-0.02058 0.0224244 1e-05
-0.0206 0.0224245 1e-05
-0.0205 0.0251 1e-05
-0.02052 0.0251003 1e-05
-0.02054 0.0251005 1e-05
-0.02056 0.0251007 1e-05
-0.02058 0.0251008 1e-05
-0.0206 0.0251008 1e-05
-0.0205 0.001 1e-05
-0.0203632 0.00100536 1e-05
-0.0202266 0.00101331 1e-05
-0.0200901 0.00102296 1e-05
-0.0200427 0.00102682 1e-05
-0.0198376 0.00104418 1e-05
-0.0196338 0.00107322 1e-05
-0.0194327 0.00111734 1e-05
-0.0192368 0.00118024 1e-05
-0.0190172 0.00124951 1e-05
-0.0189002 0.00128348 1e-05
-0.0187827 0.00131598 1e-05
-0.0186649 0.001347 1e-05
-0.0185469 0.001377 1e-05
-0.0183807 0.00141936 1e-05
-0.0182041 0.00146458 1e-05
-0.0180267 0.00150692 1e-05
-0.0178487 0.0015464 1e-05
-0.0176703 0.00158389 1e-05
-0.0174976 0.00161991 1e-05
-0.0172846 0.00166394 1e-05
-0.0170715 0.00170741 1e-05
-0.0168583 0.00175029 1e-05
-0.0166449 0.00179219 1e-05
-0.0163945 0.00184007 1e-05
-0.0163234 0.00185324 1e-05
-0.0162522 0.00186629 1e-05
-0.016181 0.00187921 1e-05
-0.0161097 0.00189201 1e-05
-0.0160387 0.0019046 1e-05
-0.0157586 0.0019535 1e-05
-0.0154779 0.00199931 1e-05
-0.0151968 0.00204225 1e-05
-0.0149154 0.00208283 1e-05
-0.0146381 0.00212134 1e-05
-0.0143838 0.00215527 1e-05
-0.0141293 0.00218766 1e-05
-0.0138747 0.00221855 1e-05
-0.0136198 0.00224797 1e-05
-0.0132934 0.00228369 1e-05
-0.0132791 0.00228515 1e-05
-0.0132648 0.0022866 1e-05
-0.0132504 0.00228805 1e-05
-0.0132361 0.0022895 1e-05
-0.0132214 0.00229098 1e-05
-0.0129776 0.00231543 1e-05
-0.0127337 0.00233865 1e-05
-0.0124897 0.00236061 1e-05
-0.0122456 0.00238129 1e-05
-0.0120025 0.00240058 1e-05
-0.0117547 0.00241909 1e-05
-0.0115067 0.00243627 1e-05
-0.0112587 0.00245231 1e-05
-0.0110106 0.00246734 1e-05
-0.0107632 0.00248136 1e-05
-0.0105252 0.00249391 1e-05
-0.0102872 0.00250547 1e-05
-0.0100491 0.00251602 1e-05
-0.00981105 0.00252575 1e-05
-0.00957337 0.00253471 1e-05
-0.00934491 0.00254261 1e-05
-0.00911643 0.00254974 1e-05
-0.00888792 0.0025561 1e-05
-0.0086594 0.00256171 1e-05
-0.00843108 0.00256668 1e-05
-0.00821175 0.00257084 1e-05
-0.00799241 0.00257439 1e-05
-0.00777306 0.00257731 1e-05
-0.0075537 0.00257952 1e-05
-0.00733443 0.00258114 1e-05
-0.00712387 0.00258212 1e-05
-0.0069133 0.00258255 1e-05
-0.00670273 0.00258243 1e-05
-0.00649216 0.00258162 1e-05
-0.0062816 0.00258017 1e-05
-0.00607944 0.00257819 1e-05
-0.0058773 0.00257565 1e-05
-0.00567516 0.00257256 1e-05
-0.00547303 0.00256874 1e-05
-0.00527083 0.00256419 1e-05
-0.00507675 0.00255912 1e-05
-0.00488269 0.00255343 1e-05
-0.00468865 0.00254711 1e-05
-0.00449464 0.00253997 1e-05
-0.00430044 0.0025319 1e-05
-0.00411412 0.00252329 1e-05
-0.00392784 0.00251388 1e-05
-0.00374159 0.00250368 1e-05
-0.0035554 0.00249255 1e-05
-0.00336883 0.00248016 1e-05
-0.00318995 0.00246711 1e-05
-0.00301115 0.00245299 1e-05
-0.00283245 0.00243774 1e-05
-0.00265386 0.00242121 1e-05
-0.00247443 0.00240314 1e-05
-0.0023027 0.00238425 1e-05
-0.00213114 0.00236384 1e-05
-0.00195982 0.00234154 1e-05
-0.00178875 0.00231738 1e-05
-0.00161577 0.00229105 1e-05
-0.00161568 0.00229104 1e-05
-0.00161559 0.00229102 1e-05
-0.0016155 0.00229101 1e-05
-0.00161541 0.00229099 1e-05
-0.00161532 0.00229098 1e-05
-0.00145054 0.00226407 1e-05
-0.00128616 0.00223481 1e-05
-0.00112221 0.00220326 1e-05
-0.000958702 0.00216946 1e-05
-0.000791418 0.00213236 1e-05
-0.000633135 0.00209425 1e-05
-0.000475556 0.00205332 1e-05
-0.000318719 0.00200963 1e-05
-0.000162835 0.00196266 1e-05
0 0.00190951 1e-05
3.7335e-05 0.00189631 1e-05
7.45701e-05 0.00188283 1e-05
0.000111707 0.00186908 1e-05
0.000148746 0.00185508 1e-05
0.000179052 0.00184338 1e-05
0.000248919 0.00181594 1e-05
0.000318375 0.00178747 1e-05
0.000387406 0.00175799 1e-05
0.000455997 0.0017275 1e-05
0.000528387 0.00169412 1e-05
0.000634886 0.00164314 1e-05
0.000740278 0.00158991 1e-05
0.00084451 0.00153444 1e-05
0.00094762 0.00147691 1e-05
0.00101985 0.00143468 1e-05
0.00102806 0.00142973 1e-05
0.00103625 0.00142475 1e-05
0.00104444 0.00141976 1e-05
0.00105262 0.00141475 1e-05
0.00106088 0.00140968 1e-05
0.00116821 0.00134349 1e-05
0.00127404 0.00127493 1e-05
0.00137827 0.00120398 1e-05
0.00148099 0.00113084 1e-05
0.00159665 0.00104511 1e-05
0.00159682 0.00104497 1e-05
0.001597 0.00104484 1e-05
0.00159717 0.0010447 1e-05
0.00159734 0.00104457 1e-05
0.00159752 0.00104443 1e-05
0.00169217 0.000970871 1e-05
0.00178542 0.000895543 1e-05
0.0018772 0.000818416 1e-05
0.00196755 0.000739636 1e-05
0.00203794 0.000676367 1e-05
0.00205802 0.000657865 1e-05
0.00207801 0.000639275 1e-05
0.00209792 0.000620595 1e-05
0.00211777 0.000601852 1e-05
0.00213833 0.000582324 1e-05
0.00219145 0.000531518 1e-05
0.00224407 0.000480195 1e-05
0.00229618 0.000428348 1e-05
0.00234775 0.00037597 1e-05
0.00239404 0.000328255 1e-05
0.0024519 0.000267779 1e-05
0.00250912 0.000206703 1e-05
0.00256572 0.000145044 1e-05
0.00262181 8.29188e-05 1e-05
0.00268334 1.35766e-05 1e-05
0.0026857 1.08613e-05 1e-05
0.00268806 8.14497e-06 1e-05
0.00269042 5.42764e-06 1e-05
0.00269278 2.70931e-06 1e-05
0.00269513 0 1e-05
0.00275903 -7.37367e-05 1e-05
0.00282231 -0.000148005 1e-05
0.00288494 -0.000222813 1e-05
0.00294692 -0.000298173 1e-05
0.00300399 -0.000368654 1e-05
0.00304971 -0.000425952 1e-05
0.00309512 -0.000483496 1e-05
0.00314022 -0.000541282 1e-05
0.00318507 -0.000599263 1e-05
0.00323259 -0.00066126 1e-05
0.00325062 -0.000685027 1e-05
0.0032686 -0.000708833 1e-05
0.00328653 -0.000732679 1e-05
0.0033044 -0.000756566 1e-05
0.00332193 -0.000780089 1e-05
0.00339007 -0.000871877 1e-05
0.00345762 -0.000964107 1e-05
0.00352453 -0.00105679 1e-05
0.00359091 -0.00114986 1e-05
0.00365377 -0.00123896 1e-05
0.00368024 -0.00127687 1e-05
0.00370663 -0.00131483 1e-05
0.00373295 -0.00135285 1e-05
0.00375921 -0.0013909 1e-05
0.00378611 -0.00142999 1e-05
0.00383008 -0.00149408 1e-05
0.00387383 -0.00155833 1e-05
0.00391736 -0.00162272 1e-05
0.00396067 -0.00168726 1e-05
0.00400281 -0.00175043 1e-05
0.00407104 -0.00185329 1e-05
0.00413885 -0.00195641 1e-05
0.00420622 -0.00205982 1e-05
0.00427332 -0.00216341 1e-05
0.00434393 -0.00227311 1e-05
0.00434996 -0.00228255 1e-05
0.00435599 -0.00229199 1e-05
0.00436202 -0.00230143 1e-05
0.00436804 -0.00231088 1e-05
0.00437405 -0.0023203 1e-05
0.0044549 -0.00244725 1e-05
0.00453529 -0.00257448 1e-05
0.00461529 -0.00270197 1e-05
0.00469494 -0.00282968 1e-05
0.00477282 -0.00295497 1e-05
0.00479947 -0.00299801 1e-05
0.0048261 -0.00304107 1e-05
0.0048527 -0.00308414 1e-05
0.0048793 -0.00312721 1e-05
0.00490609 -0.00317061 1e-05
0.00496671 -0.00326881 1e-05
0.00502719 -0.00336711 1e-05
0.00508752 -0.0034655 1e-05
0.00514771 -0.00356397 1e-05
0.00520735 -0.00366161 1e-05
0.00526041 -0.00374853 1e-05
0.00531342 -0.00383547 1e-05
0.00536639 -0.00392244 1e-05
0.00541939 -0.00400939 1e-05
0.00547262 -0.0040966 1e-05
0.00551559 -0.00416691 1e-05
0.00555853 -0.00423723 1e-05
0.00560143 -0.00430757 1e-05
0.00564431 -0.00437793 1e-05
0.00568713 -0.00444811 1e-05
0.00575841 -0.00456486 1e-05
0.00582975 -0.00468158 1e-05
0.00590112 -0.00479827 1e-05
0.00597264 -0.00491488 1e-05
0.00604356 -0.00503005 1e-05
0.00607981 -0.00508869 1e-05
0.00611607 -0.00514733 1e-05
0.00615234 -0.00520596 1e-05
0.00618863 -0.00526458 1e-05
0.00622503 -0.00532326 1e-05
0.00630381 -0.00545002 1e-05
0.00638278 -0.00557667 1e-05
0.00646195 -0.00570319 1e-05
0.00654139 -0.00582955 1e-05
0.00661893 -0.00595208 1e-05
0.00666283 -0.00602101 1e-05
0.00670679 -0.0060899 1e-05
0.0067508 -0.00615875 1e-05
0.00679489 -0.00622755 1e-05
0.00683936 -0.00629671 1e-05
0.00691124 -0.00640811 1e-05
0.00698338 -0.00651935 1e-05
0.00705578 -0.00663042 1e-05
0.00712846 -0.0067413 1e-05
0.00719878 -0.00684775 1e-05
0.00726947 -0.00695401 1e-05
0.00734039 -0.00706012 1e-05
0.00741153 -0.00716608 1e-05
0.00748299 -0.00727183 1e-05
0.00755597 -0.00737909 1e-05
0.0076014 -0.00744538 1e-05
0.00764696 -0.00751159 1e-05
0.00769265 -0.00757771 1e-05
0.00773847 -0.00764373 1e-05
0.00778313 -0.00770776 1e-05
0.00790091 -0.00787572 1e-05
0.00801946 -0.00804315 1e-05
0.00813878 -0.00821002 1e-05
0.0082591 -0.00837618 1e-05
0.00837203 -0.00853008 1e-05
0.00837974 -0.00854045 1e-05
0.00838745 -0.0085508 1e-05
0.00839516 -0.00856116 1e-05
0.00840288 -0.00857151 1e-05
0.00841062 -0.00858189 1e-05
0.0085216 -0.00873053 1e-05
0.0086334 -0.00887854 1e-05
0.00874604 -0.00902592 1e-05
0.00885955 -0.00917263 1e-05
0.00896551 -0.00930772 1e-05
0.00903013 -0.00938904 1e-05
0.009095 -0.00947016 1e-05
0.00916015 -0.00955105 1e-05
0.0092256 -0.0096317 1e-05
0.00929321 -0.00971439 1e-05
0.00934729 -0.00977998 1e-05
0.00940156 -0.00984542 1e-05
0.00945603 -0.00991069 1e-05
0.0095107 -0.0099758 1e-05
0.0095636 -0.0100384 1e-05
[...]
POINT_DATA 12278
 FIELD attributes 1
U 3 12278 float
9.72339 	0.381311 	0 9.77871 	0.305049 	0 9.83405 	0.228765 	0 9.8894 	0.152465 	0 9.94476 	0.0761532 	0 10 	0 	0
10.0671 	0.375483 	0 10.0537 	0.300387 	0 10.0403 	0.225271 	0 10.0268 	0.150141 	0 10.0134 	0.0750008 	0 10 	0 	0
10.0364 	0.141572 	0 10.0291 	0.113304 	0 10.0218 	0.085089 	0 10.0145 	0.0569263 	0 10.0071 	0.0288164 	0 10 	0 	0
10.0137 	0.111519 	0 10.011 	0.0892151 	0 10.0082 	0.0669108 	0 10.0055 	0.0446061 	0 10.0027 	0.0223012 	0 10 	0 	0
10.0097 	0.0196533 	0 10.0078 	0.0157227 	0 10.0058 	0.011792 	0 10.0039 	0.00786133 	0 10.0019 	0.00393066 	0 10 	0 	0
10.0102 	-0.0372875 	0 10.0082 	-0.02983 	0 10.0061 	-0.0223725 	0 10.0041 	-0.014915 	0 10.002 	-0.00745741 	0 10 	0 	0
10.0174 	-0.148997 	0 10.0139 	-0.119197 	0 10.0105 	-0.0893967 	0 10.007 	-0.0595953 	0 10.0035 	-0.0297932 	0 10 	0 	0
10.0362 	-0.265901 	0 10.029 	-0.212721 	0 10.0217 	-0.159534 	0 10.0145 	-0.106342 	0 10.0072 	-0.053146 	0 10 	0 	0
10.0563 	-0.387167 	0 10.045 	-0.309734 	0 10.0338 	-0.23228 	0 10.0225 	-0.15481 	0 10.0112 	-0.0773281 	0 10 	0 	0
8.30133 	-0.114495 	0 8.4287 	-0.091596 	0 8.55659 	-0.0686962 	0 8.68498 	-0.0457957 	0 8.81385 	-0.0228949 	0 8.94315 	0 	0
9.72339 	0.381311 	0 9.5415 	0.555241 	0 9.39671 	0.663651 	0 9.26203 	0.754271 	0 9.2183 	0.780385 	0 8.95344 	1.27614 	0 8.70578 	1.91036 	0 8.48173 	2.72184 	0 8.46724 	2.67123 	0 8.47252 	2.45986 	0 8.50117 	2.35314 	0 8.52498 	2.2443 	0 8.51221 	2.16311 	0 8.42487 	2.14738 	0 8.30214 	2.12559 	0 8.30117 	1.9821 	0 8.28715 	1.83798 	0 8.21181 	1.72569 	0 8.035 	1.67507 	0 7.86306 	1.62575 	0 7.68323 	1.56759 	0 7.50177 	1.50875 	0 7.42793 	1.45839 	0 7.36148 	1.40771 	0 7.27865 	1.34671 	0 7.22249 	1.32376 	0 7.16614 	1.3007 	0 7.10958 	1.27753 	0 7.07928 	1.2544 	0 7.05291 	1.23121 	0 6.97394 	1.13838 	0 6.88841 	1.05226 	0 6.79883 	0.980328 	0 6.71191 	0.932082 	0 6.6228 	0.883658 	0 6.55089 	0.833774 	0 6.49229 	0.787587 	0 6.44246 	0.743854 	0 6.3887 	0.699089 	0 6.31694 	0.642265 	0 6.31477 	0.64017 	0 6.3132 	0.638345 	0 6.31172 	0.636559 	0 6.31023 	0.63477 	0 6.30868 	0.632931 	0 6.27132 	0.597061 	0 6.23151 	0.560862 	0 6.18922 	0.524331 	0 6.1444 	0.487462 	0 6.10943 	0.456251 	0 6.07602 	0.420969 	0 6.04571 	0.390994 	0 6.01701 	0.36455 	0 5.99443 	0.339599 	0 5.97316 	0.315194 	0 5.95246 	0.289061 	0 5.92972 	0.262717 	0 5.91348 	0.241656 	0 5.9034 	0.222652 	0 5.89182 	0.203585 	0 5.87917 	0.183517 	0 5.86498 	0.163351 	0 5.85627 	0.143786 	0 5.85337 	0.127397 	0 5.84919 	0.110982 	0 5.84297 	0.0943466 	0 5.8355 	0.0776702 	0 5.83341 	0.0589677 	0 5.83631 	0.0430934 	0 5.838 	0.0272197 	0 5.83717 	0.0119218 	0 5.83535 	-0.00344508 	0 5.83921 	-0.0225468 	0 5.84732 	-0.0400387 	0 5.85425 	-0.0574765 	0 5.85861 	-0.0735437 	0 5.86185 	-0.089585 	0 5.87122 	-0.110973 	0 5.88468 	-0.132512 	0 5.89666 	-0.153979 	0 5.90651 	-0.173346 	0 5.91508 	-0.192643 	0 5.9294 	-0.218103 	0 5.94828 	-0.247059 	0 5.96528 	-0.275876 	0 5.98122 	-0.302108 	0 5.99552 	-0.328192 	0 6.01455 	-0.359806 	0 6.03866 	-0.400971 	0 6.06026 	-0.441893 	0 6.0826 	-0.480357 	0 6.10481 	-0.520981 	0 6.13011 	-0.567638 	0 6.15459 	-0.619711 	0 6.17872 	-0.679522 	0 6.2061 	-0.738518 	0 6.23745 	-0.811911 	0 6.26492 	-0.884768 	0 6.28857 	-0.957087 	0 6.30869 	-1.0298 	0 6.3087 	-1.02984 	0 6.30871 	-1.0299 	0 6.30873 	-1.02996 	0 6.30875 	-1.03003 	0 6.30876 	-1.03009 	0 6.33255 	-1.12727 	0 6.3511 	-1.22235 	0 6.36451 	-1.31537 	0 6.37527 	-1.41406 	0 6.38855 	-1.53826 	0 6.40635 	-1.664 	0 6.4179 	-1.78766 	0 6.40578 	-1.93017 	2.62076e-20 6.36941 	-2.07914 	5.37258e-20 6.31926 	-2.23392 	8.12273e-20 6.31106 	-2.28437 	2.33855e-20 6.29887 	-2.33169 	5.83831e-21 6.28251 	-2.37571 	3.12643e-20 6.26559 	-2.41947 	5.73106e-20 6.25126 	-2.45516 	7.91863e-20 6.22486 	-2.55102 	1.78954e-19 6.19652 	-2.64632 	2.82883e-19 6.16624 	-2.74104 	3.90947e-19 6.12008 	-2.82219 	2.7432e-19 6.06354 	-2.90253 	6.24853e-20 5.98357 	-3.02219 	4.92692e-20 5.89841 	-3.13889 	3.61844e-20 5.80154 	-3.23673 	8.56949e-21 5.70027 	-3.33264 	-1.80458e-20 5.62538 	-3.39918 	-3.61793e-20 5.61623 	-3.40849 	-3.59715e-20 5.60705 	-3.41778 	-3.57486e-20 5.5978 	-3.42643 	-3.68991e-20 5.58841 	-3.43338 	-4.1705e-20 5.57889 	-3.4404 	-4.65566e-20 5.45899 	-3.53661 	-2.82887e-20 5.33378 	-3.63086 	-9.44805e-21 5.20774 	-3.70781 	1.26092e-22 5.08151 	-3.7667 	-1.85313e-22 4.93253 	-3.832 	7.52137e-23 4.93227 	-3.83215 	4.30411e-23 4.93202 	-3.83229 	1.0868e-23 4.93178 	-3.83239 	1.9079e-23 4.93156 	-3.83246 	4.78905e-23 4.93133 	-3.83254 	7.67114e-23 4.80562 	-3.88188 	1.12999e-21 4.67582 	-3.92962 	2.48767e-21 4.5489 	-3.96612 	4.21547e-21 4.43128 	-3.98321 	6.34044e-21 4.33596 	-3.99558 	8.21104e-21 4.30562 	-4.00324 	1.33578e-20 4.27506 	-4.01083 	1.85426e-20 4.24975 	-4.01254 	9.22205e-21 4.22458 	-4.0139 	-8.27966e-22 4.19828 	-4.01526 	-1.1248e-20 4.12447 	-4.02257 	-6.36164e-20 4.04949 	-4.02935 	-1.15617e-19 3.97346 	-4.03546 	-1.65803e-19 3.9093 	-4.02993 	-1.01565e-19 3.85049 	-4.02455 	-4.30481e-20 3.77291 	-4.02669 	4.17501e-21 3.69543 	-4.02595 	4.19932e-20 3.62354 	-4.01383 	3.41952e-20 3.55057 	-4.00124 	2.6668e-20 3.46852 	-3.98675 	1.86408e-20 3.46519 	-3.98633 	1.92657e-20 3.46185 	-3.98591 	1.98907e-20 3.45852 	-3.98549 	2.05159e-20 3.45537 	-3.98477 	2.10406e-20 3.45231 	-3.98393 	2.15239e-20 3.38417 	-3.97191 	1.41255e-20 3.31398 	-3.95775 	7.41759e-21 3.24258 	-3.9429 	7.04304e-22 3.17079 	-3.91584 	6.16802e-21 3.10316 	-3.88907 	1.23511e-20 3.06107 	-3.87906 	3.47243e-20 3.01867 	-3.86766 	5.06249e-20 2.97706 	-3.8487 	2.3361e-20 2.93506 	-3.8295 	-3.84592e-21 2.88985 	-3.80881 	-3.27748e-20 2.87172 	-3.80225 	-3.88785e-20 2.85352 	-3.79565 	-4.49845e-20 2.83523 	-3.78899 	-5.10926e-20 2.81703 	-3.77992 	-5.72862e-20 2.79911 	-3.77041 	-6.33984e-20 2.74571 	-3.74935 	-1.07122e-19 2.69148 	-3.72779 	-1.50966e-19 2.63668 	-3.69714 	-1.46188e-19 2.58227 	-3.65976 	-8.81841e-20 2.52974 	-3.62366 	-3.27078e-20 2.51282 	-3.61473 	2.06216e-21 2.49584 	-3.60561 	3.52298e-20 2.47997 	-3.59321 	2.99757e-20 2.46403 	-3.58077 	2.47567e-20 2.44761 	-3.56796 	1.94376e-20 2.41707 	-3.54887 	5.65496e-20 2.38628 	-3.52959 	9.35822e-20 2.35522 	-3.51012 	1.30533e-19 2.32523 	-3.48561 	1.03445e-19 2.29583 	-3.46117 	7.22967e-20 2.2589 	-3.43548 	4.24474e-20 2.22151 	-3.40946 	1.25658e-20 2.18695 	-3.3766 	-2.90029e-21 2.15214 	-3.3434 	-1.81051e-20 2.11501 	-3.30807 	-3.42092e-20 2.1113 	-3.30521 	-3.17864e-20 2.10759 	-3.30235 	-2.93664e-20 2.10387 	-3.29948 	-2.69491e-20 2.10037 	-3.29606 	-3.39981e-20 2.09689 	-3.29262 	-4.13437e-20 2.06017 	-3.26033 	-1.64584e-19 2.02445 	-3.226 	-2.56569e-19 1.98939 	-3.18989 	-2.99641e-19 1.95716 	-3.149 	-1.9331e-19 1.9254 	-3.10878 	-8.89806e-20 1.91679 	-3.09909 	-7.78898e-20 1.90817 	-3.08939 	-6.67948e-20 1.90083 	-3.07855 	-5.65237e-20 1.8938 	-3.06744 	-4.64433e-20 1.8867 	-3.05625 	-3.62872e-20 1.86478 	-3.03087 	-1.17495e-20 1.84273 	-3.00539 	1.28096e-20 1.82114 	-2.97923 	2.99842e-20 1.80211 	-2.95026 	1.21502e-20 1.78322 	-2.92151 	-5.5204e-21 1.76983 	-2.90255 	-2.11377e-20 1.75641 	-2.88356 	-3.67433e-20 1.74517 	-2.86327 	-1.81124e-20 1.73487 	-2.84247 	1.47173e-20 1.72457 	-2.82163 	4.76534e-20 1.71224 	-2.80444 	1.21509e-20 1.69989 	-2.78722 	-2.33014e-20 1.68818 	-2.76953 	-3.49188e-20 1.6781 	-2.75068 	1.29589e-20 1.66806 	-2.73188 	6.07053e-20 1.65473 	-2.70768 	1.9746e-19 1.64143 	-2.68351 	3.34153e-19 1.63051 	-2.65856 	2.96348e-19 1.62135 	-2.63313 	1.33606e-19 1.61244 	-2.60809 	-2.78278e-20 1.60463 	-2.59473 	-5.73806e-20 1.59683 	-2.58137 	-8.69414e-20 1.58984 	-2.56767 	-8.97866e-20 1.58396 	-2.55351 	-5.6288e-20 1.5781 	-2.53935 	-2.27627e-20 1.56811 	-2.51484 	-2.46244e-20 1.55823 	-2.49042 	-2.65258e-20 1.5503 	-2.46587 	-1.93324e-20 1.54486 	-2.44118 	-5.03358e-22 1.53979 	-2.41737 	1.77448e-20 1.53315 	-2.40289 	2.97186e-20 1.52653 	-2.38842 	4.16877e-20 1.52122 	-2.37373 	4.57191e-20 1.51687 	-2.3589 	4.40957e-20 1.51254 	-2.34404 	4.24424e-20 1.5073 	-2.3243 	2.55658e-20 1.5022 	-2.30468 	8.66361e-21 1.49817 	-2.28527 	-3.1304e-21 1.49682 	-2.26622 	-1.11878e-21 1.49572 	-2.24806 	8.13712e-22 1.48875 	-2.22755 	7.62526e-20 1.48188 	-2.20712 	1.51919e-19 1.47762 	-2.18687 	1.25783e-19 1.47428 	-2.16676 	6.78044e-20 1.47106 	-2.14648 	8.99823e-21 1.46986 	-2.13594 	-2.33617e-20 1.46872 	-2.12545 	-5.5678e-20 1.46783 	-2.11513 	-8.20023e-20 1.46936 	-2.10624 	-3.64851e-20 1.47092 	-2.09767 	7.88457e-21 1.46379 	-2.06746 	4.60784e-21 1.45697 	-2.03753 	1.31333e-21 1.4562 	-2.01096 	-2.34586e-20 1.45676 	-1.98525 	-5.1734e-20 1.45937 	-1.96229 	-7.4865e-20 1.4589 	-1.96032 	-6.85259e-20 1.45843 	-1.95836 	-6.22411e-20 1.45838 	-1.95661 	-6.69862e-20 1.45833 	-1.95486 	-7.17289e-20 1.45828 	-1.9531 	-7.6482e-20 1.45641 	-1.92818 	-2.09504e-19 1.4549 	-1.90355 	-3.41791e-19 1.45413 	-1.87951 	-4.46549e-19 1.45838 	-1.85929 	-1.91174e-19 1.46274 	-1.84092 	4.70864e-20 1.46059 	-1.82602 	1.1117e-19 1.45856 	-1.81121 	1.75039e-19 1.45948 	-1.79853 	1.42335e-19 1.46053 	-1.78595 	1.09731e-19 1.46173 	-1.77312 	7.63084e-20 1.46266 	-1.76356 	6.73828e-20 1.46366 	-1.75406 	5.84791e-20 1.46475 	-1.74462 	4.95977e-20 1.46736 	-1.73644 	5.16702e-20 1.47003 	-1.72868 	5.4186e-20 1.46952 	-1.70542 	2.94968e-20 1.46935 	-1.68244 	4.74578e-21 1.47227 	-1.66188 	2.0235e-20 1.47687 	-1.64242 	4.532e-20 1.48281 	-1.62531 	6.855e-20 1.4828 	-1.62124 	6.74317e-20 1.48288 	-1.61724 	6.75957e-20 1.48347 	-1.61362 	7.5153e-20 1.48407 	-1.61001 	8.27083e-20 1.48469 	-1.60637 	9.03519e-20 1.4874 	-1.59063 	1.39728e-19 1.49037 	-1.57509 	1.88981e-19 1.49361 	-1.55975 	2.38109e-19 1.49879 	-1.54625 	1.68528e-19 1.5042 	-1.53407 	8.22491e-20 1.50586 	-1.51458 	1.55607e-19 1.50836 	-1.49582 	2.03706e-19 1.51298 	-1.479 	1.61857e-19 1.51794 	-1.46244 	1.20537e-19 1.52365 	-1.44494 	7.67545e-20 1.52367 	-1.44488 	7.65114e-20 1.5237 	-1.44481 	7.62683e-20 1.52372 	-1.44475 	7.60252e-20 1.52375 	-1.44469 	7.63483e-20 1.52378 	-1.44463 	7.69196e-20 1.52818 	-1.4276 	1.26558e-19 1.53299 	-1.41085 	1.74599e-19 1.53817 	-1.39437 	2.22249e-19 1.54493 	-1.37965 	1.8424e-19 1.55203 	-1.36673 	1.17115e-19 1.55537 	-1.34912 	2.03139e-19 1.55958 	-1.33241 	2.39555e-19 1.56522 	-1.31727 	1.74814e-19 1.5712 	-1.30236 	1.10288e-19 1.57755 	-1.28882 	3.78298e-20 1.57778 	-1.28782 	3.75772e-20 1.57805 	-1.28688 	3.67441e-20 1.57838 	-1.28599 	3.51788e-20 1.5787 	-1.2851 	3.36131e-20 1.57902 	-1.28421 	3.20383e-20 1.58424 	-1.27027 	-1.34647e-20 1.58976 	-1.25652 	-5.88887e-20 1.59557 	-1.24297 	-1.04231e-19 1.60228 	-1.23063 	-8.93417e-20 1.60933 	-1.2199 	-3.00501e-20 1.61378 	-1.20438 	-7.54335e-20 1.61854 	-1.18907 	-1.2123e-19 1.62462 	-1.17569 	-1.03793e-19 1.63192 	-1.16304 	-6.0933e-20 1.63995 	-1.15166 	3.2968e-22 1.64223 	-1.14482 	2.88002e-20 1.64485 	-1.13849 	2.8289e-20 1.64771 	-1.13254 	7.12361e-21 1.65063 	-1.12662 	-1.3991e-20 1.65377 	-1.12044 	-3.61069e-20 1.65741 	-1.11361 	-6.80305e-20 1.66114 	-1.10684 	-9.98424e-20 1.66496 	-1.10012 	-1.31542e-19 1.669 	-1.09383 	-1.31101e-19 1.67324 	-1.08835 	-7.98787e-20 1.67838 	-1.07461 	-1.11914e-19 1.68441 	-1.06135 	-1.36121e-19 1.69174 	-1.04895 	-1.45553e-19 1.69993 	-1.03834 	-1.35224e-19 1.70801 	-1.02837 	-1.25236e-19 1.71379 	-1.01486 	-2.75532e-19 1.72006 	-1.00217 	-3.50283e-19 1.72694 	-0.990728 	-2.96213e-19 1.73409 	-0.979448 	-2.42651e-19 1.74239 	-0.969371 	-1.16069e-19 1.74449 	-0.965033 	-8.25369e-20 1.74674 	-0.961146 	-8.47528e-20 1.74905 	-0.957393 	-9.6621e-20 1.75138 	-0.953656 	-1.08441e-19 1.75385 	-0.949777 	-1.2072e-19 1.75872 	-0.94242 	-1.2433e-19 1.7637 	-0.93513 	-1.27912e-19 1.7688 	-0.927906 	-1.31467e-19 1.77404 	-0.920972 	-1.29656e-19 1.77938 	-0.915206 	-1.05265e-19 1.78543 	-0.903274 	-1.32874e-19 1.79248 	-0.891917 	-1.44784e-19 1.80042 	-0.881064 	-1.43556e-19 1.80874 	-0.871997 	-1.02964e-19 1.81702 	-0.863466 	-6.09399e-20 1.82363 	-0.851775 	-1.64896e-19 1.83051 	-0.840249 	-2.66946e-19 1.83767 	-0.830556 	-2.25633e-19 1.84589 	-0.821451 	-1.2794e-19 1.85457 	-0.813005 	4.40096e-23 1.86118 	-0.802451 	1.42267e-22 1.86795 	-0.793529 	1.07658e-22 1.87492 	-0.78475 	6.90282e-23 1.88208 	-0.776072 	2.99699e-23 1.89046 	-0.766305 	-1.49889e-23 1.89084 	-0.765886 	7.13195e-22 1.89122 	-0.765468 	1.4409e-21 1.8916 	-0.76505 	2.16812e-21 1.89198 	-0.764632 	2.89487e-21 1.89235 	-0.764297 	4.24511e-22 1.89984 	-0.754842 	-2.52919e-20 1.90763 	-0.745559 	-4.71604e-20 1.91564 	-0.736387 	-6.88506e-20 1.92388 	-0.727337 	-8.98803e-20 1.93178 	-0.720349 	-3.1198e-20 1.93866 	-0.710393 	-2.11278e-20 1.94623 	-0.700877 	-1.39265e-20 1.95462 	-0.691893 	-1.04134e-20 1.96279 	-0.684621 	-1.59842e-20 1.97093 	-0.677753 	-2.24491e-20 1.97824 	-0.668047 	5.39397e-20 1.98577 	-0.658442 	1.30441e-19 1.9932 	-0.650354 	1.32354e-19 2.00152 	-0.643408 	6.57201e-20 2.00986 	-0.636665 	1.63216e-22 2.01757 	-0.627212 	9.70612e-23 2.0251 	-0.618836 	-1.11825e-20 2.03252 	-0.611295 	-3.10275e-20 2.04012 	-0.603833 	-5.08488e-20 2.04859 	-0.597194 	-6.38804e-20 2.0555 	-0.589491 	-1.06442e-19 2.06202 	-0.582982 	-1.09996e-19 2.06868 	-0.576531 	-1.13611e-19 2.07548 	-0.570136 	-1.17284e-19 2.08345 	-0.562858 	-1.21571e-19 2.08421 	-0.56219 	-1.22758e-19 2.08498 	-0.561524 	-1.23945e-19 2.08575 	-0.560858 	-1.25131e-19 2.08651 	-0.560193 	-1.26317e-19 2.08722 	-0.559652 	-1.22297e-19 2.09468 	-0.552352 	-9.43234e-20 2.10237 	-0.545194 	-6.5081e-20 2.11024 	-0.538105 	-3.58765e-20 2.11828 	-0.531086 	-6.71011e-21 2.12555 	-0.525595 	1.79222e-22 2.1327 	-0.51783 	6.74839e-20 2.14053 	-0.510848 	8.63976e-20 2.14854 	-0.503956 	1.03535e-19 2.15619 	-0.497879 	8.43298e-20 2.16321 	-0.49296 	1.49047e-20 2.17059 	-0.485438 	-5.50329e-20 2.1782 	-0.478064 	-1.18735e-19 2.18627 	-0.471423 	-1.34996e-19 2.19319 	-0.466558 	-6.72675e-20 2.20017 	-0.461777 	-7.2495e-23 2.20775 	-0.454497 	-3.95937e-23 2.21551 	-0.447276 	-6.86455e-24 2.22263 	-0.441411 	0 2.22947 	-0.436694 	0 2.23638 	-0.432051 	0 2.24413 	-0.425012 	0 2.2518 	-0.418294 	0 2.2583 	-0.413059 	0 2.265 	-0.408283 	-1.01492e-20 2.2718 	-0.403778 	-2.51706e-20 2.27969 	-0.396979 	-6.23553e-21 2.2866 	-0.391342 	-6.35182e-21 2.2931 	-0.386291 	-1.58174e-20 2.29972 	-0.381306 	-2.67411e-20 2.30639 	-0.376938 	-6.64814e-20 2.3141 	-0.370625 	-2.84743e-20 2.32045 	-0.365724 	-3.02637e-20 2.32692 	-0.360856 	-3.20248e-20 2.33351 	-0.356021 	-3.3758e-20 2.3401 	-0.351503 	-4.64687e-20 2.34634 	-0.346641 	-3.69118e-20 2.35195 	-0.342425 	-3.83626e-20 2.35766 	-0.338234 	-3.97919e-20 2.36345 	-0.334066 	-4.11999e-20 2.3703 	-0.329246 	-4.28134e-20 2.37082 	-0.32889 	-4.26953e-20 2.37135 	-0.328535 	-4.25773e-20 2.37187 	-0.32818 	-4.24594e-20 2.37239 	-0.327825 	-4.23417e-20 2.37285 	-0.327525 	-4.2519e-20 2.37901 	-0.322935 	-4.92088e-20 2.38527 	-0.318399 	-5.37577e-20 2.39165 	-0.313891 	-5.82297e-20 2.39813 	-0.30941 	-6.26253e-20 2.40377 	-0.305682 	-3.89653e-20 2.4101 	-0.300967 	-7.51603e-20 2.41626 	-0.296607 	-8.7293e-20 2.42253 	-0.292272 	-9.9367e-20 2.4289 	-0.287962 	-1.11383e-19 2.43354 	-0.284975 	-7.1304e-20 2.44012 	-0.280191 	-1.1858e-19 2.44616 	-0.276004 	-1.21107e-19 2.4523 	-0.27184 	-1.23587e-19 2.45819 	-0.267935 	-1.18997e-19 2.46216 	-0.265371 	-7.53437e-20 2.46877 	-0.260754 	-1.17871e-19 2.47494 	-0.256549 	-1.28009e-19 2.48094 	-0.252554 	-1.22404e-19 2.48588 	-0.249292 	-9.47976e-20 2.48961 	-0.246833 	-4.31979e-20 2.4962 	-0.24242 	4.31564e-20 2.50259 	-0.2382 	1.03851e-19 2.50843 	-0.23437 	1.09347e-19 2.51241 	-0.231681 	5.03671e-20 2.5159 	-0.229326 	-2.6696e-20 2.52244 	-0.225112 	-1.75929e-20 2.52908 	-0.220916 	-8.49967e-21 2.5346 	-0.217332 	8.66885e-21 2.53778 	-0.215065 	2.59566e-20 2.54101 	-0.21281 	4.32192e-20 2.54749 	-0.208792 	-4.33221e-20 2.55407 	-0.20479 	-1.29876e-19 2.55906 	-0.201568 	-1.41241e-19 2.56198 	-0.199401 	-7.10813e-20 2.56495 	-0.197245 	-1.02086e-21 2.57135 	-0.193418 	-1.07298e-22 2.57786 	-0.189606 	7.85467e-22 2.58236 	-0.18672 	-1.56702e-20 2.58502 	-0.184651 	-4.94157e-20 2.58773 	-0.182592 	-8.31362e-20 2.59404 	-0.178952 	-4.76817e-20 2.60045 	-0.175325 	-1.2243e-20 2.60452 	-0.172748 	-8.54633e-21 2.60691 	-0.170776 	-2.59293e-20 2.60935 	-0.168812 	-4.32966e-20 2.61557 	-0.165354 	-2.59866e-20 2.62187 	-0.16191 	-8.70945e-21 2.62548 	-0.159632 	-9.45386e-21 2.62767 	-0.157736 	-2.60528e-20 2.62984 	-0.155864 	-4.33776e-20 2.63595 	-0.152584 	-1.64881e-19 2.64159 	-0.149529 	-2.61786e-19 2.64504 	-0.14737 	-2.57095e-19 2.64731 	-0.145491 	-1.64742e-19 2.64921 	-0.14371 	-4.33581e-20 2.6552 	-0.140604 	-2.59807e-20 2.66021 	-0.137896 	-8.62082e-21 2.66349 	-0.135852 	8.7086e-21 2.66584 	-0.134006 	2.1307e-20 2.66748 	-0.132313 	3.02488e-20 2.67334 	-0.129375 	9.13152e-20 2.67774 	-0.126977 	1.18689e-19 2.68085 	-0.125045 	1.17016e-19 2.68329 	-0.123242 	9.2107e-20 2.68467 	-0.121636 	3.16727e-20 2.69041 	-0.118861 	2.3231e-20 2.69421 	-0.116738 	1.48056e-20 2.69716 	-0.114914 	6.38513e-21 2.69969 	-0.113165 	0 2.70081 	-0.111643 	0 2.70642 	-0.109026 	0 2.70966 	-0.107148 	1.47184e-20 2.71245 	-0.105428 	3.25483e-20 2.71507 	-0.103741 	5.0363e-20 2.71594 	-0.102299 	6.81044e-20 2.72141 	-0.0998366 	1.90097e-19 2.72413 	-0.098174 	1.93617e-19 2.72674 	-0.0965557 	1.9109e-19 2.72941 	-0.0949406 	1.88613e-19 2.73008 	-0.0935732 	7.02111e-20 2.73522 	-0.0913103 	5.31975e-20 2.73763 	-0.0897866 	3.6237e-20 2.74009 	-0.0882658 	1.92684e-20 2.74258 	-0.0867477 	2.29165e-21 2.74326 	-0.0854317 	1.46994e-20 2.74795 	-0.0833856 	-4.34139e-24 2.75021 	-0.0819562 	-2.98866e-23 2.7525 	-0.0805292 	-5.54216e-23 2.75484 	-0.0791046 	-8.09465e-23 2.75553 	-0.0778443 	6.38962e-21 2.75979 	-0.0759931 	-5.08105e-20 2.7619 	-0.0746544 	-4.95114e-20 2.76404 	-0.0733177 	-4.82397e-20 2.76622 	-0.0719832 	-4.69954e-20 2.7669 	-0.0707815 	-5.64423e-21 2.77078 	-0.0691059 	8.55925e-23 2.77273 	-0.0678542 	6.0487e-23 2.77473 	-0.0666043 	3.53718e-23 2.77675 	-0.0653562 	1.02468e-23 2.77743 	-0.0642152 	0 2.78094 	-0.0626976 	1.11888e-20 2.78275 	-0.0615294 	3.75114e-20 2.7846 	-0.0603627 	6.38253e-20 2.78648 	-0.0591975 	9.01305e-20 2.78715 	-0.0581185 	1.07492e-19 2.79032 	-0.0567431 	1.73098e-19 2.792 	-0.0556548 	1.72019e-19 2.7937 	-0.0545678 	1.70969e-19 2.79544 	-0.0534821 	1.69946e-19 2.7961 	-0.0524655 	1.02481e-19 2.79896 	-0.0512183 	8.75778e-20 2.8005 	-0.0502064 	5.31452e-20 2.80207 	-0.0491956 	1.87073e-20 2.80368 	-0.0481858 	-1.57362e-20 2.80431 	-0.0472314 	-4.66892e-20 2.80688 	-0.0461 	-9.02122e-20 2.8083 	-0.0451609 	-8.90043e-20 2.80975 	-0.0442228 	-8.78302e-20 2.81122 	-0.0432856 	-8.66899e-20 2.81183 	-0.0423927 	-3.70486e-20 2.81414 	-0.0413658 	-4.95363e-20 2.81544 	-0.0404961 	-3.17161e-20 2.81676 	-0.0396273 	-1.39138e-20 2.81811 	-0.0387592 	3.8707e-21 2.81868 	-0.0379266 	4.31027e-20 2.82076 	-0.0369943 	4.986e-20 2.82194 	-0.0361907 	6.73305e-20 2.82315 	-0.0353877 	8.47928e-20 2.82438 	-0.0345854 	1.02247e-19 2.82491 	-0.0338115 	1.22062e-19 2.82678 	-0.032965 	1.46227e-19 2.82786 	-0.0322241 	1.37004e-19 2.82895 	-0.0314837 	1.27803e-19 2.83007 	-0.0307439 	1.18623e-19 2.83056 	-0.0300269 	8.16859e-20 2.83224 	-0.0292583 	5.8063e-20 2.83321 	-0.0285767 	3.23155e-20 2.83421 	-0.0278956 	6.56621e-21 2.83522 	-0.027215 	-1.91849e-20 2.83565 	-0.0265529 	-4.10451e-20 2.83717 	-0.0258551 	-5.61664e-20 2.83805 	-0.0252298 	-3.83929e-20 2.83894 	-0.0246047 	-2.06455e-20 2.83985 	-0.0239801 	-2.92408e-21 2.84023 	-0.0233707 	4.84822e-20 2.84161 	-0.0227375 	1.02323e-19 2.84239 	-0.0221651 	1.10003e-19 2.84319 	-0.0215931 	1.17727e-19 2.84401 	-0.0210213 	1.25494e-19 2.84433 	-0.0204621 	8.86197e-20 2.84558 	-0.0198879 	7.17964e-20 2.84628 	-0.0193655 	6.32529e-20 2.847 	-0.0188433 	5.47053e-20 2.84773 	-0.0183214 	4.61536e-20 2.84798 	-0.01781 	3.76046e-20 2.84913 	-0.0172898 	1.44045e-20 2.84975 	-0.0168143 	1.47521e-20 2.85038 	-0.0163391 	1.50772e-20 2.85103 	-0.0158639 	1.53796e-20 2.85122 	-0.0153979 	4.14731e-20 2.85227 	-0.0149272 	3.985