4.545454545e-05 	0.0001783891617 	3.174772354e-05 	7.029617363e-12
6.060606061e-05 	0.0004612224947 	8.208303837e-05 	1.817464953e-11
7.575757576e-05 	0.0007440558282 	0.000132418355 	2.931968412e-11
9.090909091e-05 	0.00105389801 	0.0001792278303 	3.514647243e-11
0.0001060606061 	0.001393986995 	0.000222090021 	3.502003877e-11
0.0001212121212 	0.001734075972 	0.0002649522116 	3.48936041e-11
0.0001363636364 	0.002093559613 	0.0003051157258 	3.481647313e-11
0.0001515151515 	0.002495662427 	0.0003393509308 	3.484816583e-11
0.0001666666667 	0.002897765227 	0.0003735861345 	3.487985795e-11
0.0001818181818 	0.003310508309 	0.000406583382 	3.497721062e-11
0.000196969697 	0.003781806418 	0.0004327715003 	3.543441832e-11
0.0002121212121 	0.004253104514 	0.0004589596172 	3.589162569e-11
0.0002272727273 	0.004724402601 	0.0004851477331 	3.63488328e-11
0.0002424242424 	0.005274913891 	0.0005045340081 	3.634371078e-11
0.0002575757576 	0.005825839503 	0.0005238851366 	3.633606626e-11
0.0002727272727 	0.006376765098 	0.0005432362639 	3.632842175e-11
0.0002878787879 	0.007006109509 	0.0005579309463 	3.613886571e-11
0.000303030303 	0.00765085752 	0.0005717113784 	3.591321862e-11
0.0003181818182 	0.008295605504 	0.0005854918072 	3.568757232e-11
0.0003333333333 	0.009015769291 	0.0005964156993 	3.463965452e-11
0.0003484848485 	0.009771939538 	0.0006059761466 	3.319943267e-11
0.0003636363636 	0.01052810974 	0.0006155365891 	3.175921103e-11
0.0003787878788 	0.01135235179 	0.0006235828034 	3.07408368e-11
0.0003939393939 	0.01223996739 	0.0006302196593 	3.011577323e-11
0.0004090909091 	0.01312758292 	0.0006368565096 	2.949070864e-11
0.0004242424242 	0.01406998084 	0.000642831325 	3.00408308e-11
0.0004393939394 	0.01511023773 	0.0006476238895 	3.269027757e-11
0.0004545454545 	0.01615049457 	0.0006524164514 	3.53397237e-11
0.0004696969697 	0.01722551524 	0.0006569935291 	3.765249565e-11
0.0004848484848 	0.01843966079 	0.0006607086506 	3.861688659e-11
0.0005 	0.01965380631 	0.0006644237682 	3.958127736e-11
0.0005151515152 	0.02087591386 	0.000668112784 	4.046336685e-11
0.0005303030303 	0.02228452237 	0.0006711915883 	3.942394972e-11
0.0005454545455 	0.02369313084 	0.000674270391 	3.838453234e-11
0.0005606060606 	0.02510173925 	0.0006773491919 	3.734511468e-11
0.0005757575758 	0.02669915029 	0.0006800106196 	3.743836047e-11
0.0005909090909 	0.02832182858 	0.0006826162104 	3.768284138e-11
0.0006060606061 	0.02994450681 	0.0006852217968 	3.792732227e-11
0.0006212121212 	0.03173542347 	0.0006874554378 	3.74741029e-11
0.0006363636364 	0.03359079969 	0.0006895465658 	3.675350233e-11
0.0006515151515 	0.03544617578 	0.0006916376881 	3.603290187e-11
0.0006666666667 	0.03744279897 	0.0006933396717 	3.523877519e-11
0.0006818181818 	0.03954860716 	0.0006947408121 	3.438827648e-11
0.000696969697 	0.04165441524 	0.000696141946 	3.353777676e-11
0.0007121212121 	0.04386850153 	0.0006971596618 	3.309902991e-11
0.0007272727273 	0.04624163906 	0.0006976140801 	3.326512457e-11
0.0007424242424 	0.04861477645 	0.0006980684958 	3.343121878e-11
0.0007575757576 	0.05105764202 	0.0006982158621 	3.341317964e-11
0.0007727272727 	0.05371415871 	0.0006974222076 	3.283060337e-11
0.0007878787879 	0.0563706753 	0.0006966285491 	3.22480267e-11
0.000803030303 	0.05905318701 	0.0006956984475 	3.169943959e-11
0.0008181818182 	0.06200821495 	0.0006933372523 	3.150666208e-11
0.0008333333333 	0.06496324282 	0.0006909760559 	3.131388449e-11
0.0008484848485 	0.06791827061 	0.0006886148582 	3.112110682e-11
0.0008636363636 	0.0711634443 	0.0006845064927 	3.28140962e-11
0.0008787878788 	0.07443109368 	0.0006802627015 	3.465277344e-11
0.0008939393939 	0.07769874295 	0.000676018907 	3.64914514e-11
0.0009090909091 	0.08121681636 	0.0006701054385 	3.608560965e-11
0.0009242424242 	0.08481006021 	0.0006636906659 	3.500612623e-11
0.0009393939394 	0.08840330386 	0.0006572758895 	3.392664341e-11
0.0009545454545 	0.09220236612 	0.0006493913509 	3.091219789e-11
0.0009696969697 	0.09613293349 	0.0006405675702 	2.666270718e-11
0.0009848484848 	0.1000635007 	0.0006317437854 	2.24132138e-11
0.001 	0.1041509531 	0.0006217600725 	1.997600508e-11
0.001015151515 	0.1084292466 	0.0006103651533 	1.974401556e-11
0.00103030303 	0.1127075397 	0.0005989702332 	1.95120242e-11
0.001045454545 	0.1170900801 	0.0005868068409 	1.974793424e-11
0.001060606061 	0.121725143 	0.0005727815827 	2.111573305e-11
0.001075757576 	0.1263602056 	0.0005587563226 	2.248353045e-11
0.001090909091 	0.1310438322 	0.0005443901361 	2.352484529e-11
0.001106060606 	0.1360434323 	0.0005278049591 	2.243834012e-11
0.001121212121 	0.1410430323 	0.0005112197817 	2.13518351e-11
0.001136363636 	0.1460426322 	0.0004946346041 	2.02653302e-11
0.001151515152 	0.1514041295 	0.0004757715079 	1.856783239e-11
0.001166666667 	0.1567751944 	0.0004568480792 	1.68536661e-11
0.001181818182 	0.1621462589 	0.0004379246498 	1.513950144e-11
0.001196969697 	0.1678264745 	0.0004174137581 	1.033085223e-11
0.001212121212 	0.1735767415 	0.0003965430334 	4.821171892e-12
0.001227272727 	0.1793270082 	0.000375672308 	-6.885067723e-13
0.001242424242 	0.1853357785 	0.0003539280323 	-4.115178569e-12
0.001257575758 	0.191479932 	0.0003317261238 	-6.450369982e-12
0.001272727273 	0.1976240851 	0.0003095242161 	-8.785561158e-12
0.001287878788 	0.2039863201 	0.0002871230995 	-7.923112239e-12
0.001303030303 	0.2105689966 	0.0002645204699 	-3.828489402e-12
0.001318181818 	0.2171516729 	0.0002419178403 	2.661333814e-13
0.001333333333 	0.223937302 	0.0002194194472 	3.20481416e-12
0.001348484848 	0.2311198516 	0.0001971246596 	3.884283496e-12
0.001363636364 	0.2383024008 	0.0001748298725 	4.563751165e-12
0.001378787879 	0.2457026302 	0.0001522539456 	4.305008417e-12
0.001393939394 	0.2540989649 	0.0001283907615 	-2.471776224e-13
0.001409090909 	0.2624952996 	0.0001045275777 	-4.799364011e-12
0.001424242424 	0.2709673863 	8.06271305e-05 	-9.199170547e-12
0.001439393939 	0.2830851002 	5.493820456e-05 	-6.268205548e-12
0.001454545455 	0.2952028133 	2.924927936e-05 	-3.337241574e-12
0.00146969697 	0.3073205256 	3.560355068e-06 	-4.062788972e-13
