4.545454545e-05 	0.0003584942998 	6.715289869e-05 	9.312025841e-12
6.060606061e-05 	0.0009268805773 	0.0001736222801 	2.407566205e-11
7.575757576e-05 	0.001495266865 	0.0002800916659 	3.883930162e-11
9.090909091e-05 	0.002090841331 	0.000379295495 	4.636263831e-11
0.0001060606061 	0.002716865185 	0.0004703648778 	4.578120156e-11
0.0001212121212 	0.003342889035 	0.0005614342621 	4.519976351e-11
0.0001363636364 	0.003987756128 	0.0006471624792 	4.46811058e-11
0.0001515151515 	0.004674033211 	0.0007211571357 	4.430098477e-11
0.0001666666667 	0.005360310272 	0.0007951517903 	4.392086302e-11
0.0001818181818 	0.006056870113 	0.0008668105687 	4.36346478e-11
0.000196969697 	0.006810022487 	0.000925620734 	4.386327294e-11
0.0002121212121 	0.00756317485 	0.0009844308979 	4.409189766e-11
0.0002272727273 	0.008316327205 	0.001043241061 	4.432052207e-11
0.0002424242424 	0.00914766013 	0.001089449369 	4.399951536e-11
0.0002575757576 	0.009979402628 	0.001135592486 	4.367550435e-11
0.0002727272727 	0.01081114511 	0.001181735602 	4.335149335e-11
0.0002878787879 	0.01172211106 	0.001219223225 	4.286468312e-11
0.000303030303 	0.0126486393 	0.001255011335 	4.234546828e-11
0.0003181818182 	0.01357516751 	0.001290799442 	4.182625436e-11
0.0003333333333 	0.01457868052 	0.001321011077 	4.038382951e-11
0.0003484848485 	0.01561894968 	0.0013485609 	3.85009606e-11
0.0003636363636 	0.01665921879 	0.001376110717 	3.661809193e-11
0.0003787878788 	0.01776862427 	0.001400294455 	3.524023018e-11
0.0003939393939 	0.01894239493 	0.001421345023 	3.433317716e-11
0.0004090909091 	0.02011616552 	0.001442395584 	3.342612298e-11
0.0004242424242 	0.02134465414 	0.001461554317 	3.382878637e-11
0.0004393939394 	0.02267088746 	0.001477334236 	3.657107482e-11
0.0004545454545 	0.02399712072 	0.001493114151 	3.931336256e-11
0.0004696969697 	0.02535728118 	0.001507984144 	4.168153684e-11
0.0004848484848 	0.02685321937 	0.001519213371 	4.255137911e-11
0.0005 	0.02834915753 	0.001530442594 	4.342122119e-11
0.0005151515152 	0.02985267085 	0.0015414982 	4.419983412e-11
0.0005303030303 	0.03153362814 	0.001548489499 	4.284836847e-11
0.0005454545455 	0.03321458538 	0.001555480795 	4.149690254e-11
0.0005606060606 	0.03489554255 	0.001562472089 	4.014543631e-11
0.0005757575758 	0.03675172441 	0.001565766814 	4.004719415e-11
0.0005909090909 	0.03863135663 	0.001568566897 	4.011629127e-11
0.0006060606061 	0.04051098879 	0.001571366974 	4.018538838e-11
0.0006212121212 	0.04254325186 	0.001571073505 	3.953204463e-11
0.0006363636364 	0.04463399488 	0.001569594802 	3.860183825e-11
0.0006515151515 	0.04672473776 	0.001568116092 	3.7671632e-11
0.0006666666667 	0.04894109087 	0.001564154041 	3.6682878e-11
0.0006818181818 	0.05125454202 	0.001558272353 	3.564934616e-11
0.000696969697 	0.05356799304 	0.001552390658 	3.461581326e-11
0.0007121212121 	0.05597610328 	0.001544685353 	3.401381919e-11
0.0007272727273 	0.05852326025 	0.00153430127 	3.404572056e-11
0.0007424242424 	0.06107041707 	0.001523917185 	3.407762147e-11
0.0007575757576 	0.06367766486 	0.001512415536 	3.393045283e-11
0.0007727272727 	0.0664690358 	0.001497489434 	3.323424926e-11
0.0007878787879 	0.06926040664 	0.001482563327 	3.253804528e-11
0.000803030303 	0.07207391915 	0.001467245257 	3.187619647e-11
0.0008181818182 	0.07511955349 	0.001447817379 	3.157397146e-11
0.0008333333333 	0.07816518775 	0.0014283895 	3.127174638e-11
0.0008484848485 	0.08121082194 	0.001408961619 	3.096952123e-11
0.0008636363636 	0.08450133716 	0.001385479582 	3.254085257e-11
0.0008787878788 	0.0878108219 	0.001361683402 	3.425692881e-11
0.0008939393939 	0.09112030653 	0.001337887218 	3.597300577e-11
0.0009090909091 	0.09463973474 	0.001310914046 	3.549703626e-11
0.0009242424242 	0.09822218246 	0.001282987096 	3.436317817e-11
0.0009393939394 	0.10180463 	0.001255060142 	3.322932066e-11
0.0009545454545 	0.1055588936 	0.001224827385 	3.023271684e-11
0.0009696969697 	0.1094229371 	0.001193121176 	2.604717569e-11
0.0009848484848 	0.1132869804 	0.001161414963 	2.186163194e-11
0.001 	0.1172817558 	0.001128217995 	1.944083188e-11
0.001015151515 	0.1214355587 	0.001093207338 	1.916738354e-11
0.00103030303 	0.1255893614 	0.00105819668 	1.889393343e-11
0.001045454545 	0.1298300925 	0.001022397863 	1.907569583e-11
0.001060606061 	0.1342813943 	0.0009846893938 	2.035865445e-11
0.001075757576 	0.1387326959 	0.0009469809223 	2.164161172e-11
0.001090909091 	0.1432246233 	0.0009090124282 	2.261201234e-11
0.001106060606 	0.1479808764 	0.0008693511088 	2.154535573e-11
0.001121212121 	0.1527371294 	0.0008296897893 	2.047869926e-11
0.001136363636 	0.1574933823 	0.0007900284698 	1.94120429e-11
0.001151515152 	0.1625541432 	0.0007493255739 	1.77783526e-11
0.001166666667 	0.1676229543 	0.0007085949998 	1.612918185e-11
0.001181818182 	0.1726917652 	0.0006678644252 	1.448001265e-11
0.001196969697 	0.1780229766 	0.000627090564 	9.916360793e-12
0.001212121212 	0.1834136459 	0.0005863067316 	4.692459041e-12
0.001227272727 	0.188804315 	0.0005455228982 	-5.314411313e-13
0.001242424242 	0.1944171409 	0.0005054764619 	-3.779482266e-12
0.001257575758 	0.2001463144 	0.0004658160301 	-5.992189119e-12
0.001272727273 	0.2058754875 	0.0004261555999 	-8.204895751e-12
0.001287878788 	0.211795484 	0.0003877709523 	-7.397417573e-12
0.001303030303 	0.2179083686 	0.0003506756748 	-3.537138288e-12
0.001318181818 	0.2240212529 	0.0003135803971 	3.231409476e-13
0.001333333333 	0.2303160543 	0.000277811772 	3.091966249e-12
0.001348484848 	0.2369666362 	0.0002446373293 	3.727616066e-12
0.001363636364 	0.2436172178 	0.0002114628872 	4.363264311e-12
0.001378787879 	0.2504671725 	0.0001788323185 	4.11360872e-12
0.001393939394 	0.2582294596 	0.0001486893029 	-1.873794821e-13
0.001409090909 	0.2659917466 	0.0001185462874 	-4.488368013e-12
0.001424242424 	0.2738241642 	8.844332507e-05 	-8.64568351e-12
0.001439393939 	0.2850316692 	6.026404823e-05 	-5.891066127e-12
0.001454545455 	0.2962391737 	3.208477205e-05 	-3.13644971e-12
0.00146969697 	0.3074466774 	3.905496713e-06 	-3.818345179e-13
