/*--------------------------------*- C++ -*----------------------------------*\
| =========                 |                                                 |
| \\      /  F ield         | OpenFOAM: The Open Source CFD Toolbox           |
|  \\    /   O peration     | Version:  2.3.x                                 |
|   \\  /    A nd           | Web:      www.OpenFOAM.org                      |
|    \\/     M anipulation  |                                                 |
\*---------------------------------------------------------------------------*/
FoamFile
{
    version     2.0;
    format      ascii;
    class       volScalarField;
    location    "0";
    object      alpha;
}
// * * * * * * * * * * * * * * * * * * * * * * * * * * * * * * * * * * * * * //

dimensions      [0 0 0 0 0 0 0];

internalField   nonuniform List<scalar> 
6300
(
0.156792
0.102497
0.0909284
0.0880502
0.0871089
0.0858647
0.0839277
0.0814635
0.0786615
0.0756437
0.0724807
0.0692135
0.0658666
0.0624556
0.0589902
0.0554769
0.05192
0.0483221
0.0446848
0.0410087
0.0372932
0.0335367
0.0297355
0.0258823
0.0219638
0.0179542
0.0138115
0.00950594
0.00524853
0.00301742
0.2266
0.0757344
0.0366675
0.044412
0.0459567
0.0448869
0.043729
0.0427706
0.0418636
0.0408912
0.0397995
0.0385717
0.0372084
0.0357172
0.0341077
0.0323902
0.0305745
0.0286701
0.0266859
0.0246307
0.022514
0.0203463
0.0181409
0.0159163
0.0137012
0.0115419
0.00950038
0.00756571
0.00549298
0.00396138
0.289187
0.148087
0.067002
0.0337417
0.0248373
0.0236521
0.0233402
0.022444
0.0210876
0.0195479
0.0179874
0.016481
0.015058
0.0137267
0.0124852
0.0113272
0.0102446
0.00922839
0.00826917
0.00735743
0.00648325
0.00563609
0.0048045
0.00397699
0.00314998
0.00236862
0.00183196
0.00178283
0.00207379
0.00280318
0.302032
0.169562
0.0823377
0.0385872
0.022433
0.0180727
0.0165417
0.0149843
0.0131115
0.011144
0.0092504
0.00751058
0.00595365
0.00458413
0.00339495
0.00237386
0.00150635
0.000776911
0.00016938
0.000333206
0.000749084
0.00110029
0.0014136
0.00172333
0.00207672
0.00253194
0.00308623
0.0035126
0.00351105
0.00365663
0.309872
0.186572
0.0996841
0.0512829
0.030468
0.0233035
0.0203637
0.0180033
0.0155385
0.0130678
0.0107305
0.00859796
0.00669567
0.00502536
0.00357758
0.00233855
0.00129607
0.000473014
0.000460521
0.00100962
0.00149659
0.00191147
0.00228085
0.00264232
0.00304488
0.00354322
0.00412205
0.00451507
0.00431452
0.0040524
0.315684
0.199856
0.11462
0.0637612
0.0394421
0.029686
0.0252274
0.0219462
0.0188175
0.015801
0.0129892
0.0104364
0.00815951
0.00615501
0.00440907
0.00290312
0.00161649
0.000528275
0.000391679
0.00115234
0.00178922
0.00233139
0.0028138
0.00327743
0.00377089
0.00434276
0.00496216
0.00532299
0.00493471
0.00433337
0.320059
0.210078
0.126592
0.0743788
0.0474228
0.0353855
0.0294333
0.0251988
0.0213889
0.0178292
0.0145589
0.0116097
0.0089869
0.00667984
0.00466981
0.00293429
0.00144916
0.000189482
0.00086923
0.0017522
0.00249016
0.00311633
0.00366774
0.00418572
0.00471609
0.00530008
0.00589302
0.00615641
0.00553391
0.00458753
0.323724
0.218608
0.136808
0.0838737
0.0549282
0.0409262
0.0335563
0.0283639
0.0238596
0.0197502
0.016021
0.0126786
0.0097145
0.00711001
0.00484076
0.00288012
0.00120059
0.000225727
0.0014234
0.00242216
0.00325522
0.00395772
0.00456753
0.0051251
0.0056726
0.00624408
0.00678295
0.00692494
0.00606494
0.00480138
0.326944
0.226034
0.14579
0.0924655
0.0619686
0.046265
0.0375646
0.0314238
0.0262171
0.0215512
0.0173598
0.0136235
0.0103196
0.00742029
0.00489518
0.00271326
0.000843587
0.000743481
0.00207354
0.00318033
0.00409918
0.00486649
0.0055203
0.00609959
0.0066428
0.00717767
0.00763821
0.00764047
0.00654353
0.00498726
0.329832
0.232656
0.153841
0.100307
0.0685616
0.0513703
0.0414275
0.0343583
0.0284478
0.0232204
0.0185632
0.0144315
0.0107881
0.00759562
0.0048175
0.00241817
0.000363254
0.00137694
0.00283081
0.00403577
0.0050288
0.00584723
0.00652887
0.00711112
0.00762911
0.00810555
0.00846758
0.00831665
0.00698487
0.0051545
0.332459
0.238662
0.161172
0.107536
0.0747567
0.0562501
0.0451479
0.0371757
0.0305641
0.0247723
0.0196459
0.0151166
0.0111325
0.00764728
0.00461785
0.00200407
0.000231754
0.00211706
0.00368631
0.00497951
0.0060352
0.00689132
0.00758543
0.00815355
0.00862811
0.00902818
0.00927621
0.00896291
0.00739909
0.00530879
0.334872
0.244172
0.167925
0.114254
0.0805979
0.0609146
0.0487279
0.0398802
0.0325736
0.026216
0.0206174
0.0156875
0.0113612
0.00758267
0.00430279
0.00147686
0.000934571
0.00295783
0.00463422
0.00600597
0.00711308
0.00799413
0.0086865
0.00922509
0.00964047
0.00994931
0.0100712
0.00958878
0.00779494
0.00545457
0.337102
0.249268
0.174198
0.120538
0.0861236
0.0653764
0.0521717
0.0424763
0.0344826
0.0275593
0.0214859
0.0161527
0.0114818
0.00740901
0.0038789
0.000842464
0.00173872
0.00389346
0.00566917
0.00711032
0.00825832
0.00915247
0.00983019
0.0103258
0.0106685
0.0108738
0.0108598
0.0102028
0.00817966
0.00559523
0.339172
0.254008
0.180063
0.126448
0.0913672
0.0696489
0.0554853
0.0449694
0.0362976
0.0288096
0.0222594
0.0165201
0.0115021
0.00713338
0.00335268
0.000106749
0.00263803
0.00491834
0.00678618
0.0082883
0.00946761
0.0103643
0.0110159
0.0114566
0.0117152
0.0118067
0.0116488
0.0108122
0.00855907
0.00573336
0.341101
0.258438
0.185573
0.13203
0.0963575
0.0737458
0.0586756
0.0473649
0.0380247
0.0299738
0.0229451
0.0167968
0.0114291
0.00676226
0.00272997
0.000724018
0.00362699
0.00602762
0.00798117
0.00953671
0.0107388
0.0116285
0.012244
0.0126197
0.0127844
0.0127533
0.0124443
0.0114233
0.00893796
0.00587101
0.342904
0.262592
0.19077
0.137321
0.101119
0.0776801
0.0617494
0.0496685
0.0396697
0.0310581
0.0235495
0.0169894
0.0112687
0.00630136
0.00201596
0.00164306
0.00470079
0.00721719
0.00925082
0.0108532
0.0120704
0.012945
0.0135157
0.0138176
0.0138798
0.0137184
0.0132519
0.0120415
0.00932028
0.0060098
0.344594
0.266498
0.195686
0.142353
0.105673
0.0814637
0.0647139
0.0518854
0.0412378
0.0320679
0.0240782
0.0171033
0.0110265
0.00575559
0.00121493
0.00264577
0.00585545
0.0084838
0.0105927
0.0122361
0.0134621
0.0143143
0.0148328
0.015053
0.0150053
0.0147067
0.0140768
0.0126716
0.00970929
0.00615104
0.34618
0.270181
0.20035
0.14715
0.110038
0.0851075
0.0675757
0.0540208
0.0427339
0.0330083
0.0245362
0.0171435
0.0107068
0.00512901
0.000330441
0.00372827
0.00708775
0.00982492
0.0120051
0.0136848
0.0149139
0.0157376
0.0161972
0.0163292
0.0161649
0.0157227
0.0149233
0.0133175
0.0101078
0.00629585
0.347673
0.273659
0.204783
0.151733
0.114229
0.0886213
0.0703411
0.0560796
0.0441624
0.0338835
0.0249277
0.0171141
0.0103136
0.00442494
0.000634005
0.0048875
0.00839518
0.0112387
0.0134869
0.0151988
0.0164264
0.0172165
0.0176115
0.0176493
0.0173623
0.0167705
0.0157955
0.0139827
0.0105183
0.00644514
0.349078
0.276951
0.209006
0.156119
0.118259
0.0920139
0.0730157
0.0580659
0.0455272
0.0346973
0.0252564
0.0170183
0.00984975
0.00364596
0.0016732
0.00612105
0.00977594
0.0127241
0.0150378
0.0167787
0.0180008
0.0187527
0.0190781
0.0190164
0.0186011
0.0178539
0.0166973
0.0146706
0.0109427
0.00659974
0.350404
0.280071
0.213033
0.160325
0.12214
0.095293
0.0756047
0.0599837
0.0468316
0.0354528
0.0255253
0.016859
0.00931769
0.00279389
0.00278473
0.00742715
0.0112288
0.0142804
0.0166577
0.018425
0.0196385
0.0203483
0.0205999
0.0204337
0.0198849
0.0189765
0.0176319
0.0153839
0.0113831
0.00676037
0.351657
0.283032
0.21688
0.164362
0.125882
0.0984653
0.0781126
0.0618364
0.0480785
0.0361527
0.0257366
0.0166383
0.0087191
0.00186996
0.00396697
0.00880466
0.0127531
0.0159075
0.0183471
0.0201389
0.0213411
0.0220057
0.0221795
0.0219045
0.021217
0.0201417
0.0186026
0.0161252
0.0118411
0.00692768
0.352841
0.285845
0.22056
0.168243
0.129493
0.101537
0.0805434
0.0636269
0.0492703
0.0367991
0.0258924
0.0163576
0.00805508
0.00087476
0.00521887
0.0102529
0.0143486
0.0176058
0.0201069
0.0219217
0.0231106
0.0237272
0.0238198
0.0234317
0.0226007
0.0213528
0.0196124
0.0168972
0.0123184
0.00710231
0.353963
0.288522
0.224082
0.171977
0.132983
0.104513
0.0829005
0.0653576
0.050409
0.0373936
0.0259938
0.0160178
0.00732614
0.000191624
0.0065399
0.0117717
0.0160156
0.0193758
0.0219382
0.0237751
0.0249491
0.0255153
0.0255237
0.0250187
0.0240392
0.0226129
0.0206642
0.017702
0.0128165
0.00728484
0.355025
0.291071
0.227457
0.175572
0.136356
0.107398
0.085187
0.0670305
0.051496
0.0379372
0.0260417
0.0156196
0.00653229
0.00132641
0.00792994
0.0133613
0.0177547
0.0212187
0.0238424
0.025701
0.0268588
0.0273727
0.027294
0.0266683
0.0255358
0.023925
0.0217606
0.018542
0.0133369
0.00747586
0.356033
0.293501
0.230694
0.179036
0.139619
0.110196
0.0874051
0.0686472
0.0525323
0.0384308
0.0260364
0.0151627
0.00567298
0.0025282
0.0093894
0.0150223
0.0195668
0.0231357
0.0258214
0.0277013
0.0288421
0.029302
0.0291337
0.0283838
0.0270934
0.0252923
0.0229046
0.0194195
0.013881
0.00767593
0.35699
0.295819
0.2338
0.182377
0.142776
0.11291
0.089557
0.0702088
0.0535186
0.0388744
0.0259778
0.0146465
0.00474715
0.00379751
0.010919
0.0167558
0.0214533
0.0251284
0.0278768
0.0297784
0.0309015
0.031306
0.0310457
0.0301681
0.0287152
0.0267176
0.0240988
0.0203367
0.0144503
0.00788564
0.357899
0.298032
0.236783
0.1856
0.145833
0.115543
0.0916441
0.0717161
0.054455
0.0392678
0.0258651
0.0140701
0.00375322
0.00513539
0.0125199
0.0185631
0.0234157
0.0271987
0.0300108
0.0319345
0.0330396
0.0333875
0.0330329
0.0320244
0.0304043
0.028204
0.0253458
0.0212958
0.0150463
0.00810557
0.358763
0.300146
0.239649
0.18871
0.148793
0.118097
0.0936676
0.0731692
0.0553413
0.0396103
0.0256972
0.0134317
0.00268907
0.00654325
0.0141938
0.020446
0.0254559
0.0293486
0.0322258
0.034172
0.035259
0.0355493
0.0350985
0.0339557
0.0321638
0.0297544
0.0266485
0.022299
0.0156705
0.00833632
0.359585
0.302168
0.242403
0.191712
0.151659
0.120574
0.0956281
0.0745681
0.0561766
0.0399007
0.0254724
0.0127291
0.001552
0.00802298
0.0159424
0.0224064
0.0275761
0.0315804
0.034524
0.0364937
0.0375626
0.0377943
0.0372453
0.035965
0.0339966
0.0313717
0.0280094
0.0233486
0.0163243
0.00857851
0.360368
0.304101
0.245052
0.194611
0.154435
0.122976
0.0975258
0.0759121
0.0569597
0.040137
0.0251884
0.0119597
0.000338683
0.00957694
0.0177683
0.0244468
0.0297787
0.0338966
0.0369082
0.0389021
0.039953
0.0401254
0.0394763
0.0380555
0.0359058
0.033059
0.0294315
0.0244469
0.0170094
0.00883279
0.361114
0.305952
0.247599
0.19741
0.157121
0.125303
0.0993604
0.0772
0.0576888
0.040317
0.0248423
0.0111198
0.000953097
0.011208
0.0196743
0.02657
0.0320664
0.0363
0.039381
0.0414
0.0424331
0.0425455
0.0417946
0.0402301
0.0378946
0.0348191
0.0309173
0.0255962
0.0177274
0.00909983
0.361825
0.307724
0.25005
0.200112
0.159721
0.127556
0.101131
0.0784301
0.0583613
0.0404375
0.0244303
0.0102052
0.00232277
0.0129197
0.0216635
0.0287791
0.0344423
0.0387934
0.0419452
0.0439903
0.0450057
0.0450574
0.044203
0.0424917
0.0399658
0.0366551
0.0324697
0.0267989
0.0184798
0.00938029
0.362502
0.309422
0.252407
0.20272
0.162235
0.129733
0.102836
0.0795998
0.058974
0.0404945
0.0239478
0.00921079
0.00377444
0.0147159
0.02374
0.0310777
0.0369098
0.0413801
0.044604
0.0466757
0.0476735
0.0476639
0.0467042
0.0448433
0.0421223
0.0385697
0.0340913
0.0280573
0.0192683
0.0096749
0.363149
0.311048
0.254675
0.205236
0.164664
0.131836
0.104474
0.0807059
0.0595226
0.040483
0.0233891
0.00813015
0.00531331
0.0166017
0.0259081
0.0334698
0.0394725
0.0440633
0.0473602
0.0494591
0.0504393
0.0503676
0.0493009
0.0472874
0.0443668
0.0405657
0.0357847
0.0293737
0.0200946
0.00998438
0.363766
0.312606
0.256855
0.207662
0.167008
0.133861
0.106041
0.0817441
0.0600017
0.0403967
0.0227473
0.0069557
0.00694559
0.0185826
0.0281729
0.03596
0.0421344
0.0468465
0.0502169
0.0523433
0.0533056
0.0531707
0.0519953
0.0498264
0.0467017
0.0426454
0.0375525
0.0307504
0.0209602
0.0103095
0.364355
0.314099
0.258951
0.209999
0.169266
0.135807
0.107533
0.0827086
0.0604046
0.0402278
0.0220137
0.00567821
0.00867872
0.0206654
0.0305404
0.0385535
0.0448998
0.0497334
0.0531773
0.0553307
0.0562743
0.0560752
0.0547893
0.052462
0.0491289
0.0448111
0.0393967
0.0321893
0.0218667
0.0106509
0.364917
0.315529
0.260964
0.212246
0.171436
0.137669
0.108944
0.0835922
0.0607226
0.0399667
0.0211777
0.00428643
0.0105216
0.0228579
0.0330173
0.0412559
0.0477734
0.0527276
0.0562441
0.0584235
0.0593474
0.0590826
0.0576841
0.0551957
0.0516499
0.0470644
0.0413192
0.0336923
0.0228156
0.0110093
0.365453
0.316898
0.262895
0.214403
0.173515
0.139441
0.110267
0.0843854
0.0609448
0.0396011
0.0202263
0.00276668
0.0124849
0.0251694
0.0356115
0.0440735
0.0507602
0.055833
0.0594199
0.0616234
0.0625256
0.0621932
0.0606801
0.0580277
0.0542654
0.0494061
0.0433212
0.0352608
0.0238082
0.0113855
0.365964
0.318207
0.264744
0.216468
0.175498
0.141117
0.111492
0.0850762
0.0610571
0.0391157
0.0191431
0.00110217
0.0145813
0.0276107
0.0383318
0.0470134
0.0538654
0.0590529
0.0627068
0.0649312
0.0658091
0.0654066
0.0637764
0.0609572
0.0569746
0.0518362
0.0454031
0.0368956
0.0248453
0.01178
0.366451
0.319457
0.26651
0.218436
0.177379
0.142687
0.112605
0.0856489
0.0610419
0.0384911
0.0179078
0.000726671
0.0168263
0.0301946
0.0411884
0.0500832
0.0570941
0.0623905
0.066106
0.0683467
0.0691963
0.0687206
0.0669705
0.0639818
0.0597757
0.0543533
0.0475644
0.0385969
0.0259275
0.0121932
0.366914
0.320648
0.26819
0.220302
0.179147
0.144136
0.11359
0.086083
0.0608762
0.0377027
0.016495
0.00273341
0.0192381
0.0329361
0.0441929
0.0532911
0.0604516
0.0658481
0.0696176
0.071868
0.0726839
0.0721307
0.0702575
0.0670968
0.0626643
0.0569541
0.0498027
0.0403635
0.0270547
0.0126255
0.367352
0.321778
0.26978
0.222057
0.180789
0.145446
0.114424
0.0863518
0.0605304
0.0367193
0.0148726
0.00494204
0.0218387
0.0358524
0.0473579
0.0566456
0.0639424
0.0694268
0.0732395
0.0754907
0.0762658
0.0756298
0.0736298
0.0702944
0.0656335
0.0596327
0.0521139
0.0421929
0.028226
0.0130769
0.367766
0.322845
0.271274
0.223689
0.182285
0.146591
0.115075
0.0864204
0.0599664
0.0355006
0.0130006
0.0073847
0.024654
0.0389634
0.0506976
0.0601551
0.0675699
0.0731257
0.0769672
0.0792071
0.0799321
0.0792066
0.0770756
0.0735631
0.0686726
0.0623799
0.0544906
0.0440803
0.0294389
0.013547
0.368155
0.323844
0.27266
0.225179
0.18361
0.147539
0.115503
0.0862425
0.0591342
0.0339954
0.0108279
0.0101003
0.0277148
0.0422916
0.0542267
0.0638275
0.0713356
0.0769407
0.080792
0.0830051
0.083668
0.0828447
0.0805775
0.0768859
0.0717657
0.0651821
0.056922
0.0460179
0.0306896
0.0140347
0.368515
0.324768
0.273922
0.226501
0.184727
0.148243
0.115654
0.0857567
0.0579689
0.0321377
0.00829073
0.0131356
0.0310564
0.0458619
0.05796
0.0676686
0.0752375
0.0808632
0.0846997
0.0868662
0.0874519
0.0865204
0.0841113
0.080239
0.0748906
0.0680194
0.0593918
0.047994
0.0319715
0.0145383
0.368845
0.325606
0.275038
0.227618
0.185585
0.148638
0.115452
0.0848816
0.056385
0.0298424
0.00530848
0.0165459
0.0347191
0.0497004
0.0619111
0.0716806
0.079268
0.0848774
0.0886683
0.0907632
0.0912531
0.090201
0.0876436
0.0835893
0.0780162
0.070864
0.0618769
0.0499915
0.0332747
0.0150546
0.369138
0.326341
0.275973
0.228478
0.186113
0.148636
0.114797
0.0835079
0.054271
0.0270009
0.00178088
0.0203948
0.0387466
0.0538326
0.0660894
0.0758591
0.0834112
0.0889578
0.0926645
0.0946573
0.0950289
0.0938413
0.0911283
0.0868918
0.0811
0.0736777
0.0643447
0.0519856
0.0345846
0.0155789
0.369386
0.326947
0.276679
0.229003
0.186207
0.148114
0.11355
0.0814887
0.0514798
0.0234742
0.00240453
0.0247536
0.0431839
0.0582802
0.0704965
0.0801889
0.0876381
0.0930647
0.09664
0.0984939
0.0987203
0.0973803
0.0945038
0.0900861
0.0840845
0.0764081
0.0667503
0.0539415
0.0358799
0.0161039
0.369578
0.327389
0.277082
0.229084
0.185724
0.1469
0.111522
0.0786299
0.0478228
0.0190898
0.0073208
0.0296946
0.0480692
0.0630528
0.0751181
0.0846364
0.0918997
0.0971368
0.100525
0.102197
0.102247
0.100735
0.0976873
0.0930912
0.0868927
0.0789843
0.0690319
0.0558104
0.0371299
0.0166185
0.369689
0.327599
0.277063
0.228548
0.184444
0.144742
0.108444
0.0746626
0.0430484
0.0136276
0.0130853
0.0352897
0.0534312
0.0681435
0.0799192
0.0891443
0.0961217
0.101088
0.104223
0.105664
0.105503
0.103799
0.100572
0.0958019
0.0894242
0.0813132
0.0711075
0.0575262
0.0382923
0.0171069
0.369699
0.327506
0.276475
0.227171
0.182081
0.141315
0.103981
0.0692661
0.0368735
0.00686037
0.0197831
0.0415623
0.0592441
0.0734885
0.0848072
0.0935993
0.100176
0.104779
0.10759
0.108746
0.108338
0.106421
0.103009
0.0980746
0.0915412
0.0832666
0.072862
0.0589943
0.0393042
0.0175444
0.369519
0.326891
0.274965
0.224485
0.178089
0.136039
0.0975606
0.0619188
0.0288569
0.00154868
0.0275394
0.0485523
0.0654836
0.0790165
0.089677
0.0978725
0.103918
0.108054
0.110464
0.111278
0.110585
0.108434
0.104833
0.0997473
0.0930878
0.0846974
0.0741626
0.0601047
0.0400927
0.0179012
0.369152
0.325701
0.272328
0.220146
0.172038
0.128469
0.0887964
0.0523431
0.0188645
0.0113276
0.0360919
0.0559396
0.0717947
0.0843544
0.0941498
0.101587
0.106978
0.110556
0.112498
0.112927
0.111924
0.109532
0.105752
0.10054
0.0937985
0.0853568
0.0747817
0.0606618
0.0405176
0.0181199
0.368126
0.322872
0.267077
0.212404
0.162092
0.116835
0.0760937
0.0391913
0.00583226
0.0229493
0.0458027
0.0639442
0.0783002
0.0895591
0.0982377
0.104725
0.109316
0.112228
0.113624
0.113613
0.112268
0.10962
0.105664
0.100347
0.0935656
0.0851387
0.0746203
0.0605842
0.0405318
0.0181691
0.366906
0.319328
0.260053
0.202048
0.14915
0.102339
0.0610826
0.0245605
0.00772475
0.0337016
0.0541198
0.0701891
0.0828012
0.0926056
0.10008
0.10558
0.109368
0.111638
0.11253
0.112138
0.110519
0.107695
0.103651
0.0983307
0.0916222
0.0833411
0.0730391
0.059308
0.0396991
0.0178876
0.362267
0.308281
0.242691
0.179925
0.124349
0.0768314
0.0364874
0.00349601
0.0265658
0.0482172
0.0651102
0.0783199
0.0886113
0.0965307
0.102473
0.106729
0.109509
0.110969
0.111216
0.110325
0.108332
0.105249
0.101053
0.0956815
0.0890238
0.0808976
0.0708629
0.0575489
0.0385856
0.0173918
0.358822
0.300597
0.228526
0.161942
0.106028
0.0610891
0.025493
0.00995191
0.0301117
0.0477559
0.0617898
0.0729221
0.0817104
0.088559
0.0937618
0.097535
0.100038
0.101385
0.101658
0.100909
0.0991629
0.0964195
0.092651
0.0877934
0.0817361
0.0743
0.0650643
0.0527579
0.0352637
0.0162171
0.331956
0.251786
0.167154
0.0988179
0.0494853
0.0205552
0.02654
0.0430828
0.05734
0.0689857
0.0784177
0.0859806
0.0919395
0.0964972
0.0998101
0.101999
0.103154
0.103345
0.102617
0.100999
0.0985003
0.0951133
0.0908078
0.0855246
0.0791664
0.0715749
0.0623569
0.0503092
0.0334495
0.0146482
0.31691
0.235169
0.154446
0.10432
0.0734204
0.0523716
0.0371875
0.0278026
0.026346
0.0314537
0.0389478
0.0465134
0.0533474
0.0592087
0.0640497
0.0678902
0.070771
0.072736
0.0738246
0.0740678
0.0734873
0.0720934
0.0698832
0.066834
0.0628972
0.0579898
0.0518545
0.0434656
0.030762
0.0163223
0.0993821
0.123856
0.119678
0.0924403
0.0644662
0.0441658
0.0346179
0.0364423
0.0442927
0.0533133
0.061648
0.0687678
0.074578
0.0791218
0.0824806
0.0847393
0.0859735
0.0862454
0.0856019
0.0840751
0.0816806
0.0784167
0.0742601
0.0691577
0.0630137
0.0556613
0.0467596
0.0355709
0.0213857
0.00696206
0.0836877
0.129934
0.142391
0.13118
0.111028
0.0899143
0.0702341
0.0524825
0.0369072
0.024279
0.0170491
0.0181894
0.0241697
0.0307919
0.0367273
0.0416594
0.0455395
0.0483931
0.0502634
0.051192
0.0512115
0.0503422
0.0485883
0.045933
0.0423314
0.037702
0.0318868
0.02452
0.015224
0.00660131
0.031016
0.059063
0.0778377
0.0794111
0.0707484
0.0577199
0.0434249
0.0293381
0.01638
0.00733092
0.0116186
0.0202857
0.028169
0.0348266
0.0402534
0.0445127
0.0476779
0.049818
0.0509927
0.051251
0.0506309
0.0491588
0.0468491
0.0437018
0.0397014
0.0348154
0.0289716
0.0219594
0.0135632
0.00545128
0.0223537
0.0454338
0.0619902
0.0673037
0.0644718
0.056978
0.0471816
0.0364801
0.0256607
0.0151928
0.00549133
0.00428612
0.0119468
0.0186492
0.0242559
0.0288034
0.032344
0.0349307
0.0366127
0.0374329
0.037428
0.0366271
0.0350523
0.0327173
0.029628
0.025783
0.0211627
0.0156852
0.00936601
0.00380302
0.0132001
0.0276667
0.0400342
0.0460598
0.046518
0.0430065
0.0370027
0.0296267
0.0216379
0.0135411
0.00568572
0.00177394
0.00834934
0.0140847
0.0189323
0.0229011
0.0260133
0.0282979
0.0297857
0.0305075
0.0304923
0.0297671
0.0283566
0.0262836
0.0235707
0.0202419
0.0163206
0.011824
0.00691816
0.00283802
0.00920501
0.0188466
0.0275492
0.0328033
0.0345463
0.0333094
0.0298667
0.0249803
0.0192627
0.0131739
0.00705557
0.00116237
0.00429894
0.00912507
0.013269
0.016708
0.0194383
0.0214682
0.022813
0.0234926
0.0235292
0.0229472
0.0217725
0.0200339
0.0177648
0.0150056
0.0118082
0.00826468
0.00465871
0.00197622
0.00649857
0.0126234
0.0183167
0.0223414
0.0243976
0.0244185
0.0226772
0.0196198
0.0156896
0.0112641
0.00664842
0.00208136
0.00224581
0.00615158
0.00955281
0.0124052
0.0146863
0.0163888
0.0175158
0.0180783
0.0180928
0.0175806
0.0165682
0.0150878
0.0131799
0.010895
0.0083036
0.00554789
0.00298393
0.0013603
0.00482357
0.00862868
0.0120693
0.0148729
0.0167744
0.0174135
0.0167415
0.0149645
0.012373
0.00925446
0.00586253
0.00240801
0.000939249
0.00402216
0.00674406
0.00904887
0.0109024
0.0122868
0.0131969
0.0136367
0.0136182
0.0131602
0.0122885
0.0110369
0.00944916
0.00758087
0.00551261
0.00341819
0.00169716
0.000901256
0.00369753
0.00591686
0.00769764
0.00943289
0.0109905
0.0118825
0.0118618
0.0109632
0.00935519
0.00724325
0.00482758
0.00228514
0.000236208
0.00260469
0.00472412
0.00653413
0.00799467
0.00908188
0.00978478
0.0101029
0.0100446
0.0096263
0.0088726
0.0078171
0.00650414
0.00499042
0.00336033
0.00180527
0.000748134
0.000574579
0.00293099
0.00407206
0.00465098
0.00551142
0.00667717
0.00762229
0.00798243
0.00767506
0.00677678
0.00542575
0.00377356
0.00196321
0.000119623
0.00164785
0.00325126
0.00463115
0.00574597
0.00656908
0.00708635
0.00729423
0.00719842
0.00681321
0.00616137
0.00527505
0.00419718
0.0029827
0.00171552
0.000594994
9.62954e-05
0.000345003
0.00239531
0.00280017
0.00251639
0.00268317
0.00347339
0.0043695
0.00494025
0.00502463
0.00463261
0.00384967
0.00278657
0.00155544
0.000258799
0.001013
0.00218386
0.0031985
0.00401675
0.00461166
0.00496776
0.00507973
0.00495129
0.0045947
0.00403059
0.00328883
0.00240955
0.00144414
0.000473529
0.000301516
0.000464312
0.000189116
0.00201461
0.00191904
0.00102253
0.000649977
0.00110668
0.00190707
0.00258355
0.00292317
0.00288865
0.00252571
0.00191224
0.00113402
0.000273148
0.000596485
0.00141102
0.00212124
0.00269019
0.00309217
0.00331173
0.00334265
0.00318729
0.002856
0.00236715
0.00174776
0.00103441
0.000273921
0.000457574
0.000958836
0.000820118
9.43269e-05
0.00173956
0.001307
7.59709e-05
0.000808192
0.000633138
5.58993e-05
0.000773249
0.00127559
0.00149122
0.00143635
0.00116318
0.000735743
0.000218518
0.00032884
0.000853828
0.00131399
0.00167655
0.00191806
0.00202389
0.00198764
0.00181067
0.00150166
0.0010767
0.000559724
1.66257e-05
0.000609689
0.00114827
0.00143738
0.00107342
7.01323e-05
0.00153779
0.000882478
0.00075191
0.00184002
0.00189908
0.00132743
0.000607089
5.56663e-06
0.000384191
0.00055373
0.000536217
0.00037832
0.000129744
0.000162005
0.000454348
0.000711561
0.000905391
0.00101513
0.0010275
0.000936326
0.0007423
0.000452664
8.12326e-05
0.000350817
0.000814188
0.00127183
0.00165854
0.00178382
0.00125149
9.40546e-05
0.00138754
0.000590014
0.00124546
0.00256471
0.00281383
0.00235009
0.00164961
0.000990841
0.000484478
0.000153095
2.01147e-05
6.78161e-05
2.76484e-05
6.31247e-05
0.000170323
0.000264508
0.000321848
0.000324544
0.000260891
0.000125256
8.21127e-05
0.000354999
0.000681476
0.00104332
0.00141554
0.00176578
0.00203369
0.0020331
0.00137529
0.000120229
0.00127399
0.000391802
0.00157611
0.00306634
0.00346987
0.00310309
0.00243249
0.00174398
0.00115948
0.000713048
0.000399165
0.000195976
7.57152e-05
9.68076e-06
2.92107e-05
6.48129e-05
0.000116835
0.000200251
0.000325044
0.000496134
0.00071342
0.000971901
0.0012616
0.00156704
0.00186673
0.00213244
0.00230798
0.00221113
0.00146012
0.000139463
0.00118685
0.000261512
0.00178925
0.00340556
0.00393491
0.00365349
0.00301702
0.00231609
0.00168069
0.00115315
0.000736299
0.000416486
0.000173733
1.37088e-05
0.000166899
0.000304874
0.000443639
0.000595566
0.000769016
0.000968228
0.00119325
0.00144003
0.00170024
0.00196081
0.00220327
0.00240292
0.00250709
0.0023369
0.00151698
0.000152297
0.00111891
0.00018052
0.00191786
0.00362616
0.00425851
0.00405166
0.0034503
0.00274806
0.00208081
0.00149693
0.00100539
0.000598779
0.000263198
1.75204e-05
0.000259463
0.000477535
0.000684575
0.000890634
0.00110262
0.00132409
0.00155519
0.0017926
0.00202945
0.00225465
0.00245232
0.00260072
0.00265009
0.00242431
0.00155373
0.000160296
0.00106521
0.000134995
0.00198603
0.00376042
0.0044771
0.00433526
0.00376831
0.00307182
0.00238606
0.00176389
0.00121885
0.000748271
0.000342929
8.88579e-06
0.000319201
0.000599468
0.000859847
0.00110839
0.0013507
0.00158972
0.0018256
0.00205564
0.00227415
0.00247174
0.00263468
0.00274364
0.00275119
0.00248348
0.00157597
0.000164809
0.00102218
0.000113102
0.00201117
0.00383189
0.00461769
0.00453259
0.00399855
0.00331219
0.00261724
0.00196994
0.00138727
0.000870119
0.000412889
7.39132e-06
0.000355142
0.000683314
0.000985025
0.00126665
0.00153266
0.00178543
0.00202508
0.00224942
0.0024537
0.00262994
0.00276616
0.00284505
0.00282095
0.0025218
0.00158769
0.000166828
0.000987166
0.000105038
0.00200576
0.00385765
0.00470034
0.00466497
0.00416199
0.00348841
0.00279076
0.00212793
0.00151948
0.00096899
0.000473683
2.81006e-05
0.000373924
0.00073864
0.0010721
0.00137926
0.00166364
0.00192711
0.00216974
0.00238972
0.00258307
0.00274297
0.00285886
0.00291503
0.00286718
0.00254466
0.00159174
0.000167062
0.000958218
0.000104845
0.00197881
0.00385024
0.00474001
0.0047485
0.00427461
0.00361534
0.0029195
0.00224812
0.00162271
0.00104895
0.000526185
5.1107e-05
0.000380404
0.000772683
0.00113027
0.00145695
0.00175542
0.00202714
0.00227211
0.0024888
0.00267387
0.00282138
0.00292198
0.00296118
0.00289572
0.00255602
0.0015902
0.000166019
0.000933895
0.000110064
0.00193688
0.0038189
0.00474787
0.00479532
0.00434862
0.00370443
0.00301353
0.00233865
0.00170287
0.00111345
0.000571366
7.50117e-05
0.00037814
0.000790915
0.0011666
0.001508
0.00181717
0.00209515
0.00234192
0.00255616
0.00273503
0.00287329
0.00296254
0.00298928
0.00291094
0.00255879
0.00158452
0.000164065
0.000913102
0.000119802
0.00188475
0.00377043
0.00473226
0.00481458
0.00439334
0.00376454
0.00308068
0.00240597
0.00176472
0.00116538
0.000610227
9.89304e-05
0.000369765
0.000797469
0.00118648
0.00153881
0.00185594
0.00213864
0.00238677
0.00259921
0.00277347
0.00290493
0.00298591
0.00300366
0.0029161
0.00255513
0.0015758
0.000161455
0.00089507
0.000133357
0.0018259
0.00370988
0.0046994
0.00481322
0.00441588
0.00380248
0.00312706
0.00245515
0.00181205
0.00120714
0.000643669
0.000122327
0.000357177
0.000795473
0.00119405
0.00155431
0.00187726
0.0021634
0.00241253
0.00262364
0.00279455
0.00292111
0.00299619
0.00300765
0.00291369
0.00254666
0.00156484
0.000158369
0.000879202
0.000149909
0.00176288
0.00364101
0.00465401
0.0047965
0.00442164
0.00382348
0.00315743
0.0024902
0.0018479
0.00124067
0.000672515
0.000144886
0.000341756
0.00078726
0.00119248
0.00155829
0.00188535
0.00217391
0.00242373
0.00263387
0.00280241
0.00292551
0.00299653
0.00300376
0.00290557
0.00253458
0.00155224
0.000154936
0.000865032
0.000168592
0.00169752
0.00356659
0.00459963
0.00476839
0.00441479
0.00383158
0.00317548
0.00251424
0.00187471
0.00126758
0.000697471
0.000166433
0.000324505
0.000774596
0.00118417
0.00155368
0.00188348
0.00217365
0.00242389
0.00263334
0.00280022
0.00292099
0.00298936
0.00299395
0.00289314
0.00251984
0.00153844
0.00015127
0.000852232
0.000188608
0.00163116
0.00348867
0.00453886
0.00473192
0.0043985
0.00382989
0.00318405
0.00252973
0.00189437
0.00128917
0.000719165
0.000186893
0.000306162
0.000758801
0.00117093
0.00154269
0.00187417
0.00216531
0.00241575
0.00262468
0.00279045
0.00290975
0.00297655
0.00297971
0.00287754
0.00250312
0.00152377
0.000147453
0.000840531
0.000209333
0.00156475
0.00340877
0.00447373
0.00468937
0.00437518
0.00382083
0.00318538
0.00253858
0.00190842
0.00130647
0.000738122
0.000206272
0.000287242
0.000740864
0.00115417
0.00152703
0.00185936
0.00215095
0.00240141
0.00260995
0.00277502
0.00289347
0.00295953
0.00296215
0.00285958
0.00248494
0.0015085
0.000143535
0.000829716
0.000230271
0.00149894
0.00332797
0.00440573
0.00464252
0.00434671
0.00380623
0.00318122
0.00254232
0.00191806
0.00132032
0.000754783
0.000224608
0.000268108
0.000721516
0.00113494
0.00150802
0.00184053
0.00213217
0.00238249
0.00259072
0.0027554
0.00287349
0.00293939
0.00294218
0.00283988
0.00246575
0.00149285
0.000139562
0.000819583
0.000250994
0.00143413
0.003247
0.004336
0.00459271
0.00431452
0.00378753
0.00317289
0.00254212
0.00192424
0.0013314
0.000769512
0.000241942
0.000249018
0.000701304
0.00111402
0.00148666
0.00181883
0.00211018
0.00236023
0.00256821
0.00273272
0.00285082
0.00291701
0.00292047
0.002819
0.00244586
0.00147696
0.00013557
0.000809996
0.000271299
0.00137064
0.00316645
0.00426539
0.00454095
0.00427971
0.00376583
0.00316142
0.00253891
0.00192771
0.00134026
0.000782613
0.000258332
0.000230154
0.000680624
0.00109201
0.00146368
0.00179513
0.00208595
0.00233561
0.00254337
0.00270785
0.00282622
0.00289307
0.00289757
0.00279729
0.00242551
0.00146093
0.000131594
0.000800927
0.000291068
0.0013088
0.0030869
0.00419453
0.00448797
0.00424307
0.00374196
0.00314763
0.00253338
0.00192907
0.00134731
0.000794354
0.000273852
0.000211646
0.000659781
0.00106937
0.00143966
0.0017701
0.00206018
0.00230937
0.00251692
0.0026815
0.00280031
0.00286804
0.00287388
0.00277506
0.00240491
0.00144488
0.000127654
0.000792307
0.000310196
0.00124879
0.00300872
0.00412388
0.00443434
0.00420523
0.00371655
0.00313213
0.0025261
0.00192876
0.00135293
0.000804937
0.000288564
0.000193557
0.000638996
0.00104644
0.00141505
0.00174423
0.00203341
0.00228206
0.00248941
0.00265417
0.00277357
0.00284236
0.00284969
0.00275253
0.00238419
0.00142889
0.000123769
0.00078407
0.000328625
0.0011907
0.00293212
0.0040538
0.00438048
0.00416667
0.00369011
0.0031154
0.00251752
0.00192717
0.00135736
0.000814528
0.000302533
0.00017594
0.00061841
0.00102345
0.00139018
0.00171791
0.00200609
0.00225413
0.00246129
0.00262627