/*--------------------------------*- C++ -*----------------------------------*\
  =========                 |
  \\      /  F ield         | OpenFOAM: The Open Source CFD Toolbox
   \\    /   O peration     | Website:  https://openfoam.org
    \\  /    A nd           | Version:  8
     \\/     M anipulation  |
\*---------------------------------------------------------------------------*/
FoamFile
{
    version     2.0;
    format      ascii;
    class       volScalarField;
    location    "903";
    object      p;
}
// * * * * * * * * * * * * * * * * * * * * * * * * * * * * * * * * * * * * * //

dimensions      [0 2 -2 0 0 0 0];

internalField   nonuniform List<scalar> 
6300
(
3.397010509
3.693032125
3.885060143
4.135188979
4.487628154
4.883738359
5.270878562
5.620931716
5.924478038
6.180783161
6.391181678
6.556728695
6.677949412
6.755062193
6.788160785
6.777309906
6.722589678
6.624117536
6.482060049
6.296649145
6.068204907
5.797176928
5.484229342
5.130391037
4.737164929
4.306607824
3.84459256
3.370233826
2.87428755
2.143839849
7.271911814
6.841924283
6.152492319
5.574680384
5.219673159
5.046376314
4.972938225
4.93421191
4.898355551
4.8575058
4.813633972
4.770501572
4.731182402
4.697845078
4.671990355
4.654665493
4.646605146
4.648324873
4.660176254
4.682382483
4.715047101
4.75814805
4.811505271
4.874646048
4.94619612
5.023359708
5.107716599
5.214305782
5.290147784
5.036101924
11.09594017
10.82112577
10.25688393
9.717081796
9.350967105
9.176797479
9.134488159
9.149111698
9.172405395
9.186398195
9.189376581
9.184369572
9.174512736
9.16214173
9.148914368
9.136019153
9.124315577
9.114416806
9.106737765
9.101511783
9.098781258
9.098366872
9.099817043
9.102243111
9.103734497
9.101558954
9.099571024
9.11287676
9.074282215
8.730352251
14.98207096
14.7586912
14.24512745
13.70048362
13.28485745
13.05616493
12.98049298
12.98447393
13.00938365
13.02808233
13.03472903
13.03141108
13.02138957
13.00728039
12.99096853
12.97380694
12.95676996
12.94054747
12.92559896
12.91216892
12.9002876
12.88974415
12.88005104
12.87030272
12.85871828
12.84330275
12.82926935
12.83053028
12.77714666
12.43352084
18.8705085
18.65422045
18.15709928
17.60590605
17.15319468
16.87566047
16.76095022
16.74316018
16.75878557
16.77346837
16.77710365
16.77038019
16.75642892
16.73804632
16.71730838
16.69572252
16.67438275
16.65407239
16.63532055
16.61842748
16.6034648
16.59025494
16.57834508
16.56687589
16.55421266
16.53873772
16.52575106
16.52748313
16.47540808
16.14854835
22.79077578
22.5635683
22.06881032
21.51252682
21.03430693
20.71832187
20.56811393
20.52696203
20.53036242
20.53873379
20.53793733
20.52693435
20.50845872
20.48535025
20.45981277
20.43347738
20.40754601
20.38289278
20.36012043
20.3395898
20.32141659
20.30545986
20.29129207
20.27808895
20.26431392
20.24855204
20.23599046
20.23790467
20.18836839
19.87877737
26.74230035
26.49065358
25.98529135
25.41962958
24.91992588
24.57160767
24.38882028
24.32342674
24.31207745
24.31175333
24.30481617
24.28839496
24.26463303
24.23628701
24.20561862
24.1743407
24.14373696
24.11475504
24.08806088
24.06406699
24.04293063
24.02454216
24.00850392
23.99403387
23.9796917
23.964229
23.95281949
23.95634724
23.91144886
23.61927271
30.717049
30.43200878
29.90645356
29.32642308
28.80614523
28.42917144
28.21624235
28.1263967
28.09847734
28.08742049
28.07272679
28.04974629
28.01991658
27.98581421
27.94969316
27.91330849
27.87799854
27.8447649
27.81432672
27.78713876
27.76339742
27.74302819
27.72567247
27.71060449
27.69648814
27.68224491
27.67312231
27.67980354
27.64104376
27.36595812
34.70889611
34.38502379
33.83278041
33.23407872
32.69287359
32.28950146
32.04851138
31.93455907
31.88900165
31.86571544
31.84195654
31.81144128
31.77485327
31.73452043
31.69264008
31.65097466
31.61089211
31.57343347
31.53935611
31.50915637
31.48306846
31.46105756
31.44281264
31.42767574
31.41442029
31.40215065
31.39622424
31.40713798
31.37530261
31.11671503
38.71331964
38.34733949
37.76393831
37.14299464
36.57989042
36.15135935
35.88390564
35.74638082
35.6825728
35.64594318
35.61203465
35.57312082
35.52913424
35.48211117
35.4341569
35.38701427
35.34206227
35.30036733
35.26271934
35.22964871
35.2014299
35.17807072
35.15931644
35.14458305
35.13275923
35.1231322
35.12116723
35.13710645
35.11267954
34.87007981
42.72695887
42.31690949
41.69922422
41.05313363
40.46691378
40.01377762
39.72099825
39.56043863
39.47803563
39.42722417
39.38226419
39.33418643
39.28220642
39.22804848
39.17370244
39.12087206
39.07093313
39.02496765
38.9837921
38.94796946
38.91781139
38.89337612
38.87446608
38.86057392
38.8507042
38.84431804
38.84695753
38.86852154
38.85185815
38.62489611
46.74731118
46.29203483
45.63783531
44.96424364
44.35363493
43.8759998
43.55864451
43.3755042
43.27430639
43.20866849
43.15190031
43.09397822
43.03345261
42.9717333
42.91067855
42.85194325
42.7968886
42.7466043
42.70192752
42.66345359
42.63153251
42.60627079
42.58753236
42.57488797
42.56745026
42.56483697
42.57261673
42.60027507
42.59168899
42.38017363
50.77245258
50.27128528
49.57893859
48.87591847
48.23967743
47.7373593
47.39586402
47.19047741
47.07034924
46.98936923
46.92014601
46.85177092
46.78218778
46.71249919
46.64442569
46.57956371
46.51925495
46.46459099
46.41642775
46.3753892
46.3418655
46.3160121
46.29775114
46.28672707
46.28215575
46.28378538
46.29715975
46.33130477
46.33111484
46.13499967
54.8008368
54.25341984
53.52169384
52.78764168
52.12458536
51.5972114
51.23176804
51.00434136
50.86516158
50.76840722
50.68616398
50.60678285
50.52766337
50.44961422
50.3742179
50.30300739
50.23730095
50.17818969
50.12654457
50.08301773
50.04803777
50.02180654
50.00430638
49.99524953
49.99394016
50.00023083
50.01959279
50.06057511
50.06913161
49.88849698
58.83115571
58.23732088
57.46525314
56.6988071
56.00782328
55.45490038
55.06551076
54.81612859
54.6577601
54.54484551
54.4490753
54.35817943
54.26907204
54.18228569
54.09926728
54.02148604
53.95023353
53.88659891
53.83146733
53.7855173
53.74921424
53.72280557
53.70632833
53.6995564
53.70186977
53.71319838
53.73890361
53.78705581
53.8047494
53.63978199
62.86225224
62.22195042
61.40876179
60.60873853
59.88877822
59.30973229
58.89625086
58.6248871
58.44716304
58.31772679
58.20796174
58.1050748
58.00554919
57.90966131
57.81872731
57.73415222
57.65720209
57.58896174
57.5303294
57.48200929
57.44450219
57.41809985
57.40288767
57.39869421
57.40496274
57.42167603
57.45405024
57.50970331
57.53697195
57.38795056
66.89305233
66.20630687
65.35134191
64.51668845
63.76675876
63.1609625
62.72312912
62.42966099
62.2323748
62.08606286
61.96185891
61.84652708
61.73616824
61.63082186
61.5316798
61.44008695
61.35728249
61.28434734
61.22219217
61.1715453
61.13294119
61.10671294
61.09299059
61.09164813
61.10218007
61.12460048
61.16395706
61.22745312
61.26478548
61.13206737
70.92252332
70.18940013
69.29208758
68.42184705
67.64099907
67.00778652
66.54524976
66.22946918
66.01237035
65.84882367
65.70975055
65.58153422
65.45993681
65.34478075
65.23714094
65.13830361
65.04948241
64.97175594
64.9060462
64.85310546
64.81349965
64.78759837
64.77557137
64.77733496
64.79242156
64.82085622
64.86750274
64.93920012
64.98713041
64.87114166
74.94964208
74.17022849
73.23005051
72.32333296
71.51065025
70.8493265
70.36166127
70.02328667
69.78608253
69.6049299
69.45056022
69.30902817
69.17579225
69.05047671
68.93404728
68.82773527
68.73273107
68.65010991
68.58080548
68.52559173
68.4850659
68.45963272
68.44949643
68.45460508
68.47452134
68.50926767
68.5635125
68.64379556
68.70290811
68.6041348
78.97336901
78.14775832
77.16423141
76.22019571
75.37478711
74.68463286
74.17135178
73.810035
73.5523888
73.35324227
73.18314662
73.02786809
72.88259563
72.74677063
72.62125669
72.50723438
72.40587315
72.3182458
72.24529717
72.18782387
72.14644985
72.12161164
72.11354631
72.12222848
72.14724186
72.18859242
72.25075132
72.34002764
72.41095246
72.32993722
82.99262997
82.12091098
81.09357071
80.11140573
79.23239383
78.51266838
77.97323298
77.5885683
77.31010057
77.0925495
76.90629148
76.73683368
76.57912305
76.43243441
76.29753712
76.17556447
76.06766567
75.97491184
75.89826115
75.83853046
75.79637036
75.77224695
75.76642372
75.7788972
75.80926806
75.85751425
75.92791296
76.02662123
76.11003292
76.04737004
87.00630164
86.08854833
85.01693702
83.99585227
83.08236866
82.33230949
81.76613285
81.35766246
81.05795335
80.82156314
80.6186933
80.43461661
80.26406146
80.10615003
79.96156378
79.83139236
79.71676809
79.61876133
79.53834231
79.47634702
79.43345314
79.41015245
79.40673359
79.42321243
79.45919836
79.51463637
79.59361377
79.70222342
79.79884377
79.75517421
91.01319676
90.0494616
88.93311976
87.87233377
86.9235104
86.14233482
85.54878856
85.11600421
84.79459475
84.53890553
84.31895885
84.11981407
83.93599999
83.76649809
83.61191002
83.47328431
83.35173787
83.24834308
83.16408076
83.09980733
83.05622442
83.03384897
83.03299164
83.05368375
83.09554071
83.15846966
83.2463845
83.36539667
83.47598954
83.45199874
95.01205126
94.00236043
92.84081918
91.73955241
90.75451734
89.94141884
89.31983465
88.86218376
88.51857464
88.24309893
88.00559305
87.79091703
87.59341856
87.41195024
87.24703781
87.09969425
86.97102207
86.86209505
86.77390676
86.70733438
86.66310011
86.64174626
86.64360298
86.66871597
86.71670375
86.78743175
86.88465727
87.01460992
87.1399838
87.13640035
99.0015188
97.94586284
96.73863731
95.59610426
94.57397556
93.72812497
93.07779534
92.5946817
92.2283357
91.93255751
91.67698974
91.44630633
91.23468559
91.04086306
90.8652955
90.70896043
90.57294987
90.45834095
90.3661386
90.2972381
90.25238613
90.23214545
90.23686641
90.26660667
90.32098584
90.39983251
90.5067646
90.64822791
90.78923468
90.80682942
102.980153
101.8784862
100.6250694
99.44047424
98.38035551
97.50089581
96.82107617
96.31186089
95.92220296
95.60557647
95.33142146
95.0842345
94.85804072
94.65146438
94.46489878
94.29929111
94.155723
94.03527324
93.93896161
93.86770132
93.82226004
93.80322242
93.81095594
93.84553173
93.90657215
93.99386536
94.11092236
94.26450491
94.42203976
94.46162075
106.9464013
105.7986337
104.4984924
103.2710212
102.1719978
101.2580443
100.547951
100.0119532
99.59837008
99.26031789
98.96702751
98.70282453
98.46159062
98.24184844
98.04393181
97.86875946
97.71740477
97.59095143
97.49043039
97.41677431
97.37077043
97.35302488
97.36392243
97.40354593
97.47152104
97.56760372
97.69522766
97.86157139
98.03656991
98.09898634
110.8985986
109.7045905
108.3571583
107.0859759
105.947108
104.9977441
104.2565547
103.6930516
103.2548907
102.894804
102.5818036
102.3000507
102.0432928
101.8099586
101.6003274
101.4152913
101.2559161
101.1232909
101.0184583
100.9423665
100.8958262
100.8794612
100.8936744
100.9385616
101.0137547
101.1189843
101.2576398
101.4374279
101.6308709
101.7170076
114.8349461
113.594507
112.1991791
110.8834214
109.7037422
108.7180168
107.944867
107.3530929
106.8896624
106.5068986
106.1735869
105.8737289
105.6009466
105.3535806
105.1318596
104.936652
104.7690165
104.6300464
104.520797
104.4422331
104.3951825
104.3802898
104.3979751
104.4483487
104.5310519
104.6458007
104.7959804
104.9899322
105.2028383
105.3136155
118.7535116
117.4663916
116.0225207
114.6612911
113.4397982
112.4167206
111.6107039
110.9898486
110.5004153
110.0942979
109.7400463
109.4215046
109.1321782
108.8703267
108.6361307
108.4304371
108.2542978
108.1088092
107.9950379
107.9139648
107.8664348
107.8531112
107.8744312
107.9305212
108.021037
108.1456927
108.3079145
108.5167866
108.7502164
108.8865904
122.6522142
121.3180977
119.8249848
118.417346
117.1529996
116.0915378
115.2517001
114.6009071
114.0846953
113.6545091
113.2786573
112.9408315
112.6344249
112.3576213
112.1105565
111.8940563
111.7091672
111.5569884
111.4385945
111.3549804
111.3070066
111.295354
111.3204771
111.3825208
111.4811631
111.6161328
111.7909425
112.0155302
112.270582
112.4335403
126.528808
125.147312
123.604202
122.1491704
120.8408833
119.7399551
118.8652927
118.1836562
117.6398465
117.1848411
116.786699
116.4289627
116.1049201
115.8126845
115.5523498
115.3247214
115.1308376
114.9717997
114.8486883
114.7625081
114.7141347
114.7042641
114.7333683
114.8016162
114.9087123
115.0544184
115.2423869
115.4835213
115.7613311
115.9518917
130.3808756
128.9515382
127.3576107
125.854148
124.5007813
123.3592525
122.4487081
121.7352699
121.1629932
120.6823758
120.2612217
119.8829248
119.5406743
119.2325164
118.958506
118.7194271
118.5163089
118.3502504
118.2223361
118.1335779
118.0848608
118.0768948
118.1101705
118.1848807
118.3007681
118.4576513
118.6593791
118.9179292
119.2196672
119.4388749
134.2058138
132.7280886
131.0824484
129.5294536
128.129807
126.9464799
125.9989344
125.2526798
124.6510192
124.1439556
123.6990336
123.2995023
122.9384556
122.6138774
122.3257841
122.0749369
121.862354
121.6891276
121.5563405
121.465006
121.416016
121.4100916
121.4477397
121.5291835
121.6542167
121.822737
122.0388487
122.3157152
122.6425819
122.8915055
138.0008142
136.4740611
134.7757274
133.1720233
131.7248249
130.4984347
129.5127036
128.7325567
128.1005402
127.5661528
127.0966742
126.6752102
126.2947656
125.9532646
125.6506846
125.3877629
125.1655004
124.9849775
124.8472675
124.7533807
124.7042088
124.7004792
124.7427177
124.8311811
124.9657244
125.1463561
125.377503
125.6736181
126.0268401
126.3065691
141.7628515
140.1863246
138.4342202
136.7785457
135.2824424
134.0116431
132.9864665
132.1712831
131.5078811
130.9452454
130.450387
130.0062715
129.6058178
129.2468918
128.9294319
128.6541461
128.4220119
128.2340893
128.0914358
127.9950465
127.9458075
127.9444495
127.9915132
128.087295
128.2317279
128.424964
128.6718181
128.9881423
129.3689693
129.6806036
145.4886687
143.8615044
142.0544367
140.3454252
138.7989657
137.482321
136.4163562
135.5649199
134.8690416
134.2771848
133.7560904
133.2885859
132.8675067
132.4906623
132.1579477
131.8700354
131.6278713
131.4324835
131.2848998
131.1860938
131.1369348
131.1381482
131.1902908
131.2937051
131.4484199
131.6547659
131.9180182
132.2555329
132.6652247
133.0098726
149.1747507
147.49595
145.6325952
143.8687632
142.2703846
140.9063514
139.7981594
138.9091702
138.1796578
137.5575594
137.0093416
136.5176963
136.0753792
135.6801405
135.3318264
135.0310659
134.7787574
134.5758851
134.4234343
134.3223386
134.2734409
134.2774575
134.3349565
134.4463327
134.6117302
134.831701
135.1120589
135.471762
135.9115841
136.290352
152.817317
151.0857261
149.1646045
147.3443221
145.6923254
144.279239
143.1272722
142.1993392
141.434964
140.7815513
140.205295
139.6887528
139.2245989
138.8105214
138.4463093
138.1325315
137.8700263
137.6597131
137.5025147
137.3993119
137.3509056
137.3579898
137.4211443
137.5408264
137.7173169
137.9514353
138.2496115
138.6325035
139.1037143
139.5176944
156.4122875
154.6265721
152.646018
150.7674864
149.0600137
147.5960628
146.3986506
145.430282
144.6297385
143.9438928
143.3386628
142.7964715
142.3099113
141.8766
141.4962552
141.1693677
140.8966913
140.6790595
140.5173095
140.4122451
140.3646096
140.3750664
140.4442038
140.5725485
140.7605457
141.0093315
141.3260371
141.7331167
142.2369529
142.6872112
159.9552691
158.1138829
156.07201
154.1332211
152.3682216
150.8514247
149.6067501
148.5963422
147.7582467
147.0388027
146.4036522
145.8350823
145.3255971
144.8727303
144.4761077
144.1361179
143.8534015
143.628673
143.4626567
143.3560567
143.3095364
143.3237152
143.3991875
143.5365603
143.7364737
144.0004389
144.336372
144.7686103
145.3062679
145.7938314
163.4415327
161.5426705
159.4373205
157.4360137
155.6112041
154.0393761
152.7454567
151.6912785
150.8141664
150.0599227
149.3939123
148.7982815
148.2654323
147.7927948
147.3798739
147.0269201
146.7344243
146.5029465
146.3330621
146.2253432
146.1803523
146.1986497
146.2808335
146.4276056
146.6398347
146.9194651
147.2752942
147.7336261
148.3062419
148.8320753
166.865975
164.9075234
162.7362073
160.6698101
158.782622
157.1533326
155.8079939
154.7081796
153.7905061
153.0002404
152.3024631
151.6791678
151.1226349
150.6301594
150.2010846
149.835477
149.5336305
149.2959042
149.1226835
149.0143719
148.971405
148.9942699
149.0835654
149.2401031
149.4650191
149.7607614
150.1371018
150.6223941
151.2310165
151.7960049
170.2231059
168.2025661
165.9623784
163.8279279
161.8754418
160.1859669
158.7868088
157.6393441
156.6794952
155.8519894
155.1216107
154.4701798
153.8898198
153.3776424
152.9327761
152.5550453
152.2444848
152.0011973
151.8253272
151.7170742
151.676714
151.7046435
151.8014642
151.9681182
152.2060521
152.518291
152.9156807
153.4287029
154.0742584
154.6791766
173.5070097
171.4213973
169.1089081
166.9029492
164.8818083
163.1290673
161.6734339
160.4761534
159.4724654
158.6065477
157.8428648
157.163024
156.5589398
156.0274758
155.5674689
155.1784227
154.8600405
154.6121021
154.4344548
154.3270468
154.2899686
154.32351
154.428276
154.6053603
154.8565722
155.185596
155.6044574
156.1458408
156.8290989
157.474586
176.711329
174.5570365
172.1681352
169.8865831
167.7928812
165.9733607
164.4583035
163.208894
162.1596954
161.2543094
160.456837
159.7486112
159.121256
158.5712907
158.0971611
157.6979534
157.3729498
157.1215296
156.9431829
156.8375592
156.8045285
156.8442643
156.9573792
157.1451495
157.4098015
157.7557661
158.1963589
158.7665427
159.4880597
160.1745772
179.8292022
177.6018058
175.131494
172.7694434
170.5985779
168.7082444
167.1304953
165.8265266
164.7302115
163.7845253
162.9531284
162.2169763
161.5672806
161.0000871
160.5133214
160.1055311
159.7754731
159.5220385
159.344293
159.2415432
159.2134132
159.2599466
159.3817765
159.5803932
159.8585018
160.2213769
160.6837381
161.2829068
162.0429658
162.7707528
182.8533638
180.547331
177.9894133
175.5408815
173.2873641
171.3215546
169.6775089
168.3164945
167.1716493
166.1852197
165.3202914
164.5572848
163.8868257
163.3043095
162.8069748
162.3926847
162.0595519
161.8058917
161.6302796
161.5316362
161.5093199
161.5632438
161.6940747
161.9035553
162.1949392
162.5744401
163.0582993
163.6862851
164.4848079
165.2538235
185.775729
183.3840189
180.7306649
178.1882327
175.8454531
173.7987887
172.084557
170.6641199
169.4697574
168.4428042
167.5455507
166.7576398
166.068864
165.4737357
164.9686052
164.5504873
164.2167251
163.9649691
163.7932506
163.7000743
163.6845198
163.7463751
163.8863672
164.106535
164.4107454
164.8062505
165.3109353
165.9671087
166.8035422
167.6133781
188.5887207
186.1020807
183.3431659
180.6974501
178.2573371
176.123595
174.3350669
172.8531471
171.6090092
170.5427492
169.6155073
168.8057918
168.102228
167.4981526
166.9887888
166.5701297
166.2386299
165.9912026
165.8252972
165.7389919
165.7310962
165.8012931
165.9503955
166.1807813
166.4969973
166.907425
167.431702
168.114787
168.9879209
169.8376648
191.2810189
188.6870795
185.8091473
183.048169
180.5009972
178.2733118
176.4066695
174.8622274
173.5695537
172.4669446
171.5138428
170.6871169
169.9737884
169.3656742
168.8566226
168.4414393
168.1156004
167.8752446
167.7172373
167.6392491
167.6398462
167.7186372
167.8765606
168.116374
168.4433543
168.8670832
169.4090403
170.1169471
171.024718
171.9127885
193.8511701
191.1323693
188.1171761
185.2251787
182.5588084
180.2293881
178.2811906
176.6744922
175.336352
174.2023624
173.2294567
172.3921857
171.6754421
171.0691514
170.5655591
170.1581717
169.8414533
169.6107865
169.4625
169.39391
169.4033925
169.4905303
169.6564202
169.9042285
170.2399904
170.6745156
171.2311621
171.960491
172.8993925
173.82304
196.264993
193.3967349
190.2184505
187.175396
184.3766923
181.9394312
179.9098236
178.2457672
176.870171
175.7144915
174.7320255
173.8941799
173.1831689
172.5867168
172.0953382
171.7012374
171.397941
171.1801831
171.0438643
170.9860483
171.0050035
171.1003402
171.2733475
171.5276101
171.8699085
172.3122465
172.87981
173.6260248
174.5911572
175.5462969
198.5853785
195.5277617
192.1500626
188.9282255
185.9796003
183.427062
181.3169926
179.602215
178.1989118
177.0324039
176.0509621
175.2219827
174.5245538
173.9440534
173.4693207
173.0914236
172.8031517
172.5987887
172.4739838
172.4256851
172.4521482
172.5530703
172.7299496
172.986766
173.3309702
173.7756161
174.3474758
175.1025462
176.0847393
177.0635679
200.5777949
197.2759794
193.6443467
190.2150375
187.1107185
184.4539747
182.2854242
180.5473247
179.1449235
177.9947462
177.0386418
176.2394629
175.573174
175.0231135
174.5768776
174.2248407
173.9594553
173.7748784
173.6667479
173.6320637
173.6691708
173.7778945
173.9599232
174.2195435
174.5647153
175.0092797
175.5811938
176.3385768
177.3290543
178.3223148
202.8616568
199.2011827
195.2385581
191.5533117
188.2697539
185.504523
183.2840701
181.5324923
180.1393092
179.0100134
178.0794183
177.3060942
176.6635471
176.1338505
175.7040811
175.3645199
175.1077352
174.928083
174.8214172
174.7849366
174.8171653
174.918093
175.0895847
175.3361533
175.6660779
176.0936024
176.6469935
177.3846068
178.3563858
179.3399892
203.5156861
199.3851534
194.9954183
191.0779655
187.707997
184.9526759
182.8021851
181.1509332
179.8677007
178.8463847
178.016486
177.3347135
176.7744163
176.3182779
175.9542486
175.6734799
175.4692878
175.3366107
175.2717153
175.2720573
175.3362761
175.4643536
175.6580329
175.9216027
176.2630295
176.6961371
177.248542
177.9776881
178.9334917
179.8967774
207.6614175
202.6279243
197.6365334
193.3823688
189.8501883
187.0371002
184.877864
183.2296009
181.9427614
180.905404
180.046903
179.3257117
178.7172031
178.2058303
177.7809281
177.4346649
177.1610831
176.9556295
176.8149322
176.7367137
176.7198224
176.7644168
176.8723992
177.0482013
177.2999152
177.6413354
178.0986745
178.7235255
179.5606801
180.4253711
199.5448562
194.0029209
188.8100935
184.9395744
181.9823222
179.7575113
178.1521576
177.0060204
176.1677917
175.5337638
175.0438569
174.6653794
174.380127
174.1769622
174.0481827
173.9879189
173.9914802
174.0550728
174.1756768
174.3509937
174.5794601
174.8603714
175.1941847
175.5830797
176.0317216
176.5488992
177.1542934
177.8912199
178.7879971
179.6311707
220.1215589
211.4191385
204.6853491
200.2045023
196.8801921
194.2915158
192.2693814
190.6505646
189.2981583
188.1248025
187.0818129
186.1423669
185.2904764
184.5154181
183.8092522
183.1657925
182.5801958
182.0487685
181.5688823
181.1389573
180.7585362
180.4285008
180.1515191
179.9328427
179.7814679
179.7120124
179.7503019
179.9460134
180.3577567
180.8849723
166.5221359
169.2150917
169.8147192
169.2974422
168.6980156
168.2926035
168.0833827
168.020785
168.0545366
168.1499015
168.2893406
168.4665334
168.68027
168.9309262
169.2190087
169.5447473
169.9080914
170.3087942
170.7465136
171.2208969
171.7316679
172.2787555
172.8624873
173.4838896
174.1450055
174.8492523
175.6024422
176.4102966
177.2382967
177.8848371
180.7209774
182.7835144
183.5815904
183.0464779
182.1041471
181.1818959
180.3904167
179.7378204
179.1991525
178.7446817
178.3526249
178.010369
177.7112773
177.4517243
177.2294247
177.0427032
176.8902282
176.7709355
176.6840336
176.6290388
176.6058523
176.6148917
176.6572937
176.7351994
176.8520746
177.0127693
177.2217634
177.4750737
177.742549
177.9549596
174.8749032
176.326327
177.0613871
177.0317835
176.6349858
176.1411803
175.6806274
175.2984594
174.9949169
174.7552332
174.5657107
174.4178888
174.307375
174.2318973
174.1900513
174.1807382
174.2029778
174.2558749
174.3386404
174.4506242
174.5913568
174.760599
174.9583787
175.1849639
175.4406452
175.7249445
176.0336659
176.349469
176.6244971
176.7808526
175.5213283
176.5660947
177.2232477
177.3344454
177.1187113
176.7617847
176.3782133
176.0251582
175.7201479
175.4616856
175.2437702
175.0617283
174.9129184
174.7959142
174.7097645
174.6536286
174.6266647
174.6280276
174.6569038
174.7125438
174.794291
174.9015906
175.0339439
175.1907388
175.3708233
175.5714081
175.7842802
175.9849799
176.1218706
176.1542388
174.9593573
175.6357689
176.0778959
176.193383
176.0903081
175.8685247
175.6038642
175.3437947
175.1088773
174.9036856
174.7272913
174.5783819
174.4564146
174.3613115
174.2930376
174.2513944
174.2359859
174.246255
174.2815357
174.3410905
174.4241246
174.5297609
174.6569239
174.8040589
174.9685553
175.145469
175.3235149
175.474527
175.5467745
175.5161198
174.8460025
175.3050503
175.60839
175.6956311
175.6360041
175.4875028
175.2974897
175.1001783
174.9134177
174.7436819
174.5928011
174.4617024
174.3514136
174.2629444
174.1970385
174.1540725
174.1340736
174.1367859
174.1617329
174.2082606
174.2755416
174.3625275
174.4677967
174.589218
174.7233188
174.8639434
174.998229
175.0967589
175.1109479
175.0329959
174.6448953
174.9534613
175.1423864
175.1840196
175.1338496
175.027554
174.8918919
174.7477789
174.6072806
174.4756622
174.3553839
174.2484088
174.1567108
174.082068
174.0258348
173.9888712
173.9715804
173.9739856
173.9958007
174.0364708
174.0951729
174.1707531
174.2615581
174.3650765
174.4772956
174.5913681
174.6937681
174.755451
174.7322749
174.6272616
174.4737515
174.6857913
174.7967428
174.7980859
174.7426546
174.6572107
174.5563533
174.4508146
174.3467742
174.2470601
174.1535407
174.0683368
173.9938113
173.9321665
173.8851534
173.8539768
173.8393295
173.8414632
173.8602589
173.8952646
173.9456929
174.0103549
174.0874851
174.1743849
174.2667993
174.3576396
174.4333371
174.4659674
174.4160372
174.2946932
174.2940198
174.4408286
174.496099
174.4635492
174.3967286
174.3198757
174.2409405
174.1634035
174.0883028
174.0156593
173.9460825
173.8812553
173.8234928
173.7751242
173.7380954
173.7138214
173.7031923
173.7066323
173.7241585
173.7554162
173.7996722
173.8557502
173.921856
173.9952408
174.0716147
174.1439294
174.1989002
174.2099718
174.1419297
174.0116884
174.1168931
174.2195684
174.2363916
174.177805
174.098598
174.023588
173.9577144
173.8997268
173.8466412
173.7958627
173.746525
173.6995586
173.6569475
173.6209245
173.5934635
173.5760713
173.5697508
173.5750424
173.5920678
173.6205599
173.6598535
173.7088186
173.765701
173.827806
173.8909441
173.9482547
173.9868725
173.9815847
173.9008824
173.7659679
173.9411079
174.0131743
174.0032238
173.9251449
173.8344695
173.757801
173.6992292
173.6546297
173.6180423
173.5846437
173.5521145
173.5205083
173.4913175
173.4665291
173.4480221
173.4372969
173.4354006
173.4429387
173.4601083
173.4867165
173.5221708
173.5654159
173.6147826
173.6676895
173.7201178
173.7654618
173.7912931
173.7735907
173.6839773
173.5469212
173.768641
173.8191975
173.7907588
173.6985701
173.5981794
173.518267
173.4633182
173.427643
173.403187
173.3833365
173.3644666
173.3457523
173.3281286
173.3132517
173.3028262
173.2982747
173.300632
173.3105292
173.3282109
173.3535467
173.3860178
173.4246574
173.4679047
173.5133241
173.5570976
173.5928866
173.6086528
173.5813756
173.4853223
173.3475665
173.5999787
173.6351945
173.5940559
173.4919234
173.383705
173.3000123
173.2463869
173.2164679
173.2007924
173.1913595
173.1834312
173.1753662
173.167539
173.1612413
173.157953
173.1589757
173.1652901
173.177521
173.1959389
173.2204638
173.250647
173.2856136
173.3239201
173.3632873
173.4001008
173.4282668
173.4360682
173.4013026
173.3004996
173.1628917
173.4355069
173.4596772
173.409948
173.3010692
173.1867943
173.0993516
173.0456517
173.0192602
173.0098232
173.0082939
173.0090128
173.0096203
173.0099628
173.0109642
173.0138608
173.0198065
173.0297017
173.0441414
173.0634049
173.0874498
173.1158916
173.1479434
173.1822799
173.2167721
173.2479946
173.2700618
173.2715033
173.2307868
173.1264143
172.9894669
173.2752715
173.2914409
173.2360533
173.1228489
173.0040633
172.9131783
172.8585877
172.8341826
172.8290817
172.8334537
172.8409173
172.8485032
172.8555765
172.8627058
172.8708842
172.8811056
172.8941764
172.910647
172.9307912
172.9545931
172.9817238
173.0114774
173.0426391
173.0732176
173.099951
173.1171222
173.1134383
173.0679233
172.9608402
172.8248865
173.1191893
173.1295539
173.0706197
172.954915
172.8329217
172.7390273
172.6831262
172.6596495
172.6574348
172.6661238
172.6787856
172.6919308
172.7044908
172.716707
172.7293392
172.7432221
172.7590625
172.7773578
172.7983664
172.8220895
172.8482434
172.8761955
172.9048269
172.9322679
172.9553949
172.9686175
172.9607637
172.9113307
172.8021872
172.6674624
172.9670896
172.9732594
172.9123088
172.795476
172.671353
172.5749289
172.5175365
172.4942422
172.4938077
172.5055896
172.5222164
172.5397474
172.5567346
172.5731286
172.5894742
172.6064554
172.6246784
172.6445834
172.666407
172.6901605
172.7155963
172.7421426
172.7687625
172.7936905
172.8139155
172.8239364
172.8126585
172.7599939
172.6493031
172.5159868
172.818773
172.8219402
172.7600855
172.6431506
172.5177851
172.4193349
172.3603829
172.3367152
172.3372595
172.3512007
172.3708067
172.3917582
172.412282
172.4320733
172.4514841
172.471058
172.4913056
172.5126087
172.5351786
172.5590294
172.583942
172.6093943
172.6344193
172.6573347
172.6752174
172.6826274
172.6685142
172.6131651
172.5013443
172.3695834
172.6740305
172.6750883
172.6131405
172.4968718
172.3709877
172.2709727
172.2104642
172.186041
172.1869823
172.2023637
172.2241634
172.247748
172.2710683
172.2935957
172.3155115
172.3372323
172.3591806
172.3816812
172.4049183
172.4289032
172.453438
172.4780404
172.5018001
172.523102
172.5390895
172.5443583
172.5278771
172.4702864
172.3576836
172.2276042
172.5326641
172.5322865
172.4708389
172.3558135
172.2299925
172.1287874
172.0667737
172.0413743
172.0422871
172.0585511
172.08192
172.1075001
172.1330055
172.1577137
172.1816558
172.2051364
172.2284966
172.2520091
172.2758292
172.2999631
172.3242263
172.3481681
172.3709225
172.3909279
172.405376
172.4088781
172.390405
172.3309362
172.2178469
172.0895561
172.3944898
172.3931864
172.3326685
172.2193131
172.0940185
171.9919444
171.9285095
171.902005
171.9025795
171.9192969
171.9437412
171.9708019
171.9979901
172.0244164
172.0499805
172.0748876
172.0994067
172.1237619
172.1480809
172.1723623
172.1964299
172.2198567
172.2418103
172.2607701
172.2739623
172.275997
172.2558372
172.1947933
172.0814698
171.9550571
172.2593384
172.2574955
172.1982156
172.0868385
171.9624361
171.8597735
171.7950213
171.7673401
171.7673525
171.7841937
171.8093246
171.837452
171.8659129
171.8936734
171.9205195
171.946569
171.9720271
171.9970739
172.0218112
172.0462275
172.0701522
172.0931739
172.114487
172.1326002
172.1447617
172.1455691
172.1239718
172.061608
171.9482672
171.8238072
172.1270591
172.1249692
172.0671422
171.9579613