/*--------------------------------*- C++ -*----------------------------------*\
| =========                 |                                                 |
| \\      /  F ield         | OpenFOAM: The Open Source CFD Toolbox           |
|  \\    /   O peration     | Version:  2.3.x                                 |
|   \\  /    A nd           | Web:      www.OpenFOAM.org                      |
|    \\/     M anipulation  |                                                 |
\*---------------------------------------------------------------------------*/
FoamFile
{
    version     2.0;
    format      ascii;
    class       volScalarField;
    location    "0";
    object      shearrate;
}
// * * * * * * * * * * * * * * * * * * * * * * * * * * * * * * * * * * * * * //

dimensions      [0 0 -1 0 0 0 0];

internalField   nonuniform List<scalar> 
6300
(
6.1956
13.9389
23.082
34.5777
49.2951
67.8054
90.4127
117.271
148.474
184.094
224.187
268.803
317.977
371.74
430.112
493.106
560.729
632.983
709.86
791.351
877.435
968.082
1063.25
1162.87
1266.92
1375.65
1491.43
1628.78
1873.3
2849.33
9.60177
17.3392
27.1133
39.4643
55.1397
74.6277
98.1558
125.832
157.727
193.899
234.401
279.273
328.547
382.25
440.398
503.003
570.068
641.593
717.572
797.993
882.838
972.082
1065.69
1163.61
1265.87
1372.85
1487.17
1623.89
1869.26
2844.51
11.8553
19.7528
29.7693
42.5214
58.727
78.8231
102.972
131.238
163.674
200.335
241.271
286.523
336.121
390.091
448.448
511.202
578.358
649.914
725.864
806.197
890.895
979.934
1073.28
1170.91
1272.84
1379.49
1493.56
1630.15
1875.85
2853.43
14.3613
22.7109
33.0947
46.2721
63.0225
83.7607
108.582
137.49
170.512
207.689
249.068
294.687
344.576
398.757
457.244
520.045
587.165
658.601
734.347
814.391
898.719
987.309
1080.13
1177.17
1278.47
1384.5
1498.01
1634.26
1880.37
2859.11
17.1685
25.9959
36.7699
50.3633
67.6353
88.9971
114.482
144.033
177.64
215.332
257.149
303.127
353.294
407.668
466.264
529.088
596.143
667.426
742.932
822.65
906.568
994.668
1086.93
1183.35
1284
1389.38
1502.32
1638.22
1884.68
2863.86
20.2318
29.5244
40.6939
54.6981
72.4718
94.4326
120.562
150.743
184.927
223.127
265.378
311.71
362.149
416.713
475.414
538.257
605.243
676.372
751.636
831.029
914.541
1002.16
1093.87
1189.69
1289.71
1394.46
1506.82
1642.35
1889.05
2868.32
23.5948
33.3227
44.8803
59.294
77.5625
100.109
126.871
157.672
192.426
231.128
273.805
320.485
371.189
425.935
484.731
547.582
614.49
685.453
760.466
839.523
922.619
1009.75
1100.91
1196.13
1295.51
1399.61
1511.38
1646.47
1893.3
2872.33
27.2886
37.4067
49.3294
64.1458
82.905
106.03
133.413
164.825
200.141
239.338
282.435
329.454
380.416
435.334
494.217
557.068
623.887
694.675
769.427
848.14
930.814
1017.45
1108.05
1202.66
1301.39
1404.84
1515.97
1650.58
1897.45
2875.96
31.3372
41.792
54.047
69.2538
88.5
112.198
140.194
172.207
208.077
247.762
291.271
338.623
389.834
444.917
503.877
566.718
633.441
704.044
778.526
856.888
939.132
1025.26
1115.3
1209.29
1307.36
1410.13
1520.59
1654.66
1901.47
2879.25
35.7649
46.4961
59.0438
74.6244
94.3529
118.62
147.222
179.829
216.245
256.409
300.322
347.998
399.451
454.689
513.718
576.541
643.157
713.566
787.77
865.771
947.575
1033.2
1122.66
1216.01
1313.4
1415.45
1525.2
1658.68
1905.38
2882.22
40.5959
51.5368
64.3322
80.2663
100.471
125.303
154.507
187.699
224.653
265.288
309.597
357.589
409.274
464.659
523.747
586.541
653.041
723.247
797.161
874.79
956.143
1041.24
1130.11
1222.81
1319.49
1420.8
1529.8
1662.64
1909.15
2884.89
45.8548
56.9326
69.9263
86.1903
106.863
132.258
162.057
195.829
233.311
274.41
319.106
367.404
419.312
474.834
533.972
596.727
663.099
733.09
806.703
883.947
964.835
1049.39
1137.65
1229.67
1325.63
1426.16
1534.37
1666.52
1912.8
2887.26
51.5672
62.7024
75.841
92.4086
113.541
139.493
169.883
204.228
242.232
283.784
328.858
377.454
429.574
485.222
544.399
607.103
673.335
743.098
816.397
893.241
973.649
1057.65
1145.27
1236.6
1331.79
1431.51
1538.89
1670.32
1916.31
2889.34
57.7594
68.8663
82.0925
98.935
120.516
147.022
177.998
212.908
251.426
293.423
338.866
387.748
440.07
495.833
555.036
617.676
683.755
753.276
826.244
902.672
982.581
1066
1152.97
1243.57
1337.97
1436.84
1543.35
1674.02
1919.69
2891.14
64.4591
75.4452
88.6979
105.784
127.801
154.856
186.413
221.882
260.905
303.338
349.139
398.297
450.809
506.675
565.89
628.453
694.364
763.626
836.246
912.239
991.628
1074.44
1160.73
1250.58
1344.15
1442.13
1547.74
1677.62
1922.92
2892.63
71.6955
82.4613
95.6755
112.972
135.412
163.009
195.142
231.162
270.682
313.541
359.689
409.111
461.801
517.755
576.969
639.439
705.165
774.15
846.404
921.941
1000.79
1082.98
1168.56
1257.61
1350.33
1447.39
1552.05
1681.11
1926
2893.82
79.4992
89.9379
103.045
120.516
143.363
171.495
204.198
240.762
280.77
324.044
370.528
420.202
473.056
529.084
588.281
650.641
716.164
784.853
856.719
931.777
1010.06
1091.59
1176.43
1264.67
1356.49
1452.59
1556.28
1684.48
1928.91
2894.69
87.9026
97.8998
110.826
128.434
151.671
180.331
213.596
250.697
291.182
334.861
381.669
431.58
484.584
540.671
599.833
662.064
727.364
795.736
867.191
941.746
1019.43
1100.28
1184.36
1271.74
1362.63
1457.73
1560.4
1687.72
1931.66
2895.23
96.9401
106.373
119.041
136.745
160.354
189.531
223.352
260.981
301.934
346.006
393.123
443.258
496.396
552.524
611.632
673.716
738.771
806.803
877.822
951.847
1028.91
1109.05
1192.32
1278.81
1368.73
1462.8
1564.42
1690.81
1934.22
2895.42
106.648
115.387
127.713
145.469
169.43
199.116
233.483
271.63
313.039
357.491
404.905
455.249
508.503
564.653
623.689
685.602
750.39
818.057
888.613
962.08
1038.49
1117.88
1200.31
1285.88
1374.79
1467.79
1568.32
1693.76
1936.59
2895.23
117.065
124.97
136.867
154.629
178.92
209.102
244.007
282.661
324.515
369.334
417.029
467.563
520.915
577.068
636.009
697.73
762.225
829.5
899.566
972.443
1048.16
1126.77
1208.33
1292.93
1380.8
1472.68
1572.09
1696.54
1938.75
2894.66
128.232
135.154
146.529
164.248
188.844
219.509
254.942
294.093
336.378
381.549
429.508
480.215
533.646
589.78
648.604
710.106
774.282
841.137
910.68
982.935
1057.93
1135.72
1216.37
1299.97
1386.75
1477.48
1575.72
1699.15
1940.69
2893.66
140.193
145.973
156.727
174.349
199.226
230.36
266.308
305.943
348.646
394.152
442.358
493.219
546.707
602.799
661.48
722.737
786.566
852.969
921.959
993.557
1067.8
1144.73
1224.42
1306.98
1392.62
1482.16
1579.19
1701.57
1942.38
2892.22
152.994
157.463
167.491
184.96
210.089
241.676
278.126
318.231
361.337
407.161
455.595
506.589
560.111
616.137
674.648
735.632
799.082
865.001
933.402
1004.31
1077.75
1153.79
1232.48
1313.95
1398.42
1486.71
1582.5
1703.78
1943.82
2890.31
166.686
169.663
178.853
196.109
221.459
253.48
290.419
330.98
374.47
420.595
469.236
520.339
573.871
629.804
688.117
748.797
811.836
877.237
945.012
1015.18
1087.79
1162.89
1240.55
1320.87
1404.12
1491.13
1585.63
1705.77
1944.97
2887.89
181.322
182.614
190.847
207.825
233.362
265.799
303.21
344.21
388.067
434.471
483.297
534.487
588.001
643.812
701.897
762.24
824.833
889.679
956.789
1026.19
1097.92
1172.03
1248.6
1327.74
1409.72
1495.39
1588.56
1707.53
1945.83
2884.94
196.959
196.36
203.508
220.139
245.829
278.66
316.525
357.945
402.15
448.812
497.798
549.047
602.516
658.175
715.998
775.969
838.08
902.331
968.735
1037.32
1108.12
1181.2
1256.64
1334.55
1415.2
1499.49
1591.29
1709.03
1946.37
2881.41
213.657
210.948
216.877
233.087
258.89
292.09
330.39
372.211
416.742
463.637
512.758
564.038
617.432
672.905
730.432
789.994
851.581
915.196
980.851
1048.57
1118.4
1190.4
1264.65
1341.28
1420.56
1503.41
1593.78
1710.26
1946.56
2877.27
231.483
226.43
230.994
246.703
272.577
306.122
344.834
387.034
431.867
478.97
528.198
579.478
632.762
688.015
745.208
804.321
865.344
928.278
993.137
1059.95
1128.76
1199.62
1272.63
1347.92
1425.77
1507.13
1596.02
1711.19
1946.38
2872.48
250.507
242.859
245.904
261.028
286.927
320.786
359.888
402.443
447.551
494.834
544.138
595.385
648.526
703.52
760.339
818.96
879.373
941.58
1005.59
1071.45
1139.18
1208.86
1280.57
1354.46
1430.82
1510.64
1598
1711.8
1945.79
2867
270.804
260.294
261.655
276.102
301.976
336.119
375.584
418.467
463.823
511.255
560.601
611.78
664.738
719.434
775.835
833.919
893.675
955.104
1018.22
1083.06
1149.66
1218.09
1288.45
1360.88
1435.7
1513.92
1599.69
1712.07
1944.78
2860.77
292.455
278.798
278.298
291.969
317.766
352.157
391.956
435.138
480.711
528.259
577.611
628.684
681.418
735.771
791.708
849.206
908.254
968.853
1031.02
1094.78
1160.19
1227.32
1296.27
1367.18
1440.39
1516.94
1601.07
1711.97
1943.31
2853.76
315.549
298.439
295.888
308.679
334.339
368.941
409.041
452.491
498.247
545.874
595.194
646.118
698.584
752.546
807.97
864.83
923.116
982.828
1043.98
1106.62
1170.78
1236.54
1304
1373.33
1444.87
1519.7
1602.12
1711.48
1941.35
2845.91
340.179
319.289
314.485
326.283
351.742
386.513
426.88
470.563
516.464
564.13
613.376
664.105
716.254
769.776
824.633
880.8
938.265
997.03
1057.11
1118.55
1181.4
1245.72
1311.64
1379.32
1449.12
1522.15
1602.81
1710.56
1938.85
2837.16
366.449
341.427
334.154
344.835
370.025
404.919
445.515
489.391
535.397
583.059
632.183
682.669
734.45
787.475
841.707
897.121
953.704
1011.46
1070.41
1130.58
1192.04
1254.87
1319.17
1385.12
1453.11
1524.28
1603.11
1709.18
1935.79
2827.46
394.468
364.939
354.963
364.396
389.242
424.21
464.99
509.018
555.084
602.695
651.646
701.835
753.19
805.66
859.205
913.801
969.435
1026.11
1083.85
1142.7
1202.7
1263.95
1326.56
1390.72
1456.83
1526.07
1602.99
1707.31
1932.12
2816.75
424.356
389.917
376.987
385.03
409.452
444.438
485.356
529.488
575.565
623.072
671.795
721.627
772.495
824.344
877.136
930.845
985.46
1040.99
1097.45
1154.88
1213.36
1272.96
1333.8
1396.1
1460.24
1527.47
1602.42
1704.93
1927.8
2804.96
456.243
416.462
400.309
406.809
430.717
465.661
506.666
550.85
596.883
644.228
692.662
742.072
792.385
843.544
895.51
948.257
1001.78
1056.08
1111.18
1167.13
1224
1281.87
1340.87
1401.21
1463.32
1528.47
1601.38
1701.98
1922.79
2792.04
490.271
444.683
425.017
429.808
453.107
487.942
528.975
573.154
619.083
666.201
714.278
763.196
812.879
863.271
914.332
966.038
1018.38
1071.37
1125.04
1179.42
1234.6
1290.66
1347.74
1406.05
1466.04
1529.03
1599.81
1698.43
1917.04
2777.9
526.595
474.699
451.207
454.111
476.695
511.349
552.346
596.456
642.213
689.034
736.678
785.025
833.997
883.538
933.608
984.186
1035.27
1086.86
1139
1191.73
1245.13
1299.3
1354.37
1410.57
1468.37
1529.12
1597.7
1694.24
1910.5
2762.48
565.383
506.641
478.987
479.81
501.565
535.956
576.845
620.814
666.324
712.767
759.895
807.584
855.754
904.351
953.338
1002.69
1052.42
1102.52
1153.05
1204.04
1255.58
1307.76
1360.74
1414.75
1470.27
1528.69
1595
1689.38
1903.12
2745.71
606.822
540.652
508.472
507.004
527.805
561.843
602.545
646.291
691.469
737.445
783.962
830.895
878.164
925.716
973.516
1021.55
1069.82
1118.34
1167.15
1216.3
1265.89
1316.01
1366.81
1418.53
1471.69
1527.72
1591.66
1683.78
1894.85
2727.5
651.116
576.892
539.792
535.805
555.514
589.1
629.525
672.956
717.704
763.111
808.912
854.979
901.235
947.629
994.131
1040.73
1087.43
1134.26
1181.26
1228.49
1276.03
1324
1372.53
1421.9
1472.61
1526.16
1587.66
1677.43
1885.64
2707.79
698.494
615.537
573.091
566.337
584.804
617.825
657.868
700.879
745.088
789.808
834.771
879.848
924.965
970.077
1015.16
1060.21
1105.23
1150.27
1195.35
1240.55
1285.96
1331.68
1377.86
1424.78
1472.98
1523.96
1582.94
1670.26
1875.44
2686.51
749.211
656.786
608.531
598.738
615.795
648.125
687.669
730.137
773.676
817.575
861.561
905.507
949.344
993.036
1036.56
1079.93
1123.16
1166.28
1209.35
1252.43
1295.6
1338.99
1382.75
1427.15
1472.74
1521.1
1577.47
1662.24
1864.2
2663.57
803.555
700.862
646.293
633.166
648.625
680.118
719.024
760.807
803.524
846.445
889.292
931.944
974.343
1016.46
1058.29
1099.84
1141.14
1182.24
1223.18
1264.04
1304.9
1345.88
1387.13
1428.94
1471.86
1517.51
1571.21
1653.33
1851.87
2638.92
861.856
748.022
686.588
669.798
683.45
713.938
752.041
792.965
834.682
876.437
917.956
959.129
999.91
1040.28
1080.25
1119.84
1159.09
1198.03
1236.75
1275.29
1313.76
1352.25
1390.94
1430.09
1470.29
1513.17
1564.11
1643.49
1838.42
2612.49
924.498
798.563
729.658
708.843
720.446
749.726
786.829
826.685
867.182
907.548
947.519
986.998
1025.96
1064.39
1102.33
1139.81
1176.86
1213.55
1249.94
1286.08
1322.08
1358.03
1394.09
1430.53
1467.96
1508.02
1556.16
1632.71
1823.82
2584.26
991.932
852.839
775.79
750.538
759.81
787.64
823.494
862.024
901.032
939.742
977.901
1015.44
1052.35
1088.64
1124.37
1159.57
1194.31
1228.63
1262.6
1296.28
1329.75
1363.11
1396.51
1430.21
1464.83
1502.04
1547.33
1620.95
1808.04
2554.18
1064.71
911.275
825.326
795.167
801.769
827.841
862.133
899.008
936.196
972.922
1008.96
1044.27
1078.88
1112.81
1146.14
1178.93
1211.22
1243.07
1274.55
1305.72
1336.63
1367.38
1398.1
1429.05
1460.84
1495.19
1537.59
1608.23
1791.11
2522.28
1143.52
974.397
878.685
843.062
846.57
870.488
902.806
937.606
972.556
1006.9
1040.46
1073.23
1105.25
1136.61
1167.36
1197.58
1227.32
1256.64
1285.59
1314.21
1342.56
1370.69
1398.75
1426.97
1455.96
1487.45
1526.96
1594.56
1773.05
2488.62
1229.3
1042.89
936.385
894.612
894.473
915.699
945.495
977.671
1009.86
1041.36
1072.02
1101.89
1131.06
1159.61
1187.62
1215.17
1242.3
1269.05
1295.46
1321.55
1347.35
1372.92
1398.36
1423.89
1450.13
1478.8
1515.45
1579.99
1753.93
2453.29
1323.12
1117.6
999.071
950.261
945.716
963.507
990.036
1018.88
1047.66
1075.75
1103.06
1129.69
1155.74
1181.31
1206.47
1231.28
1255.78
1279.98
1303.89
1327.51
1350.84
1373.92
1396.83
1419.77
1443.34
1469.28
1503.12
1564.61
1733.89
2416.52
1427.3
1199.86
1067.55
1010.45
1000.39
1013.68
1035.93
1060.52
1085.13
1109.2
1132.71
1155.78
1178.51
1201
1223.28
1245.38
1267.31
1289.04
1310.55
1331.82
1352.82
1373.54
1394.04
1414.53
1435.57
1458.9
1490.04
1548.55
1713.11
2378.58
1542.61
1290.95
1142.76
1075.55
1058.35
1065.62
1082.24
1101.48
1121.1
1140.58
1159.94
1179.27
1198.63
1218.06
1237.56
1257.09
1276.6
1296.03
1315.32
1334.41
1353.24
1371.78
1390.06
1408.26
1426.93
1447.82
1476.43
1532.07
1691.94
2340.16
1679.68
1394.47
1225.57
1145.07
1118.17
1117.28
1126.6
1139.31
1153.19
1167.72
1182.82
1198.48
1214.66
1231.29
1248.27
1265.51
1282.89
1300.3
1317.63
1334.8
1351.71
1368.31
1384.6
1400.74
1417.29
1435.97
1462.26
1515.24
1670.55
2301.27
1826.58
1509.65
1316.38
1218.27
1178.03
1166.35
1166.73
1172.14
1180.12
1189.91
1201.18
1213.68
1227.21
1241.54
1256.47
1271.83
1287.45
1303.17
1318.84
1334.34
1349.57
1364.43
1378.92
1393.18
1407.77
1424.4
1448.55
1499.07
1650.18
2264.86
2059
1649.71
1409.26
1284.31
1226.54
1202.25
1193.32
1191.94
1195.02
1201.24
1209.81
1220.19
1231.96
1244.77
1258.32
1272.38
1286.73
1301.19
1315.6
1329.82
1343.7
1357.18
1370.23
1382.98
1396.01
1411.05
1433.55
1482.13
1629.26
2226.29
2225.38
1787.19
1505.46
1347.23
1267.45
1229.95
1213.59
1208.15
1208.98
1213.83
1221.43
1231.01
1242.01
1254.02
1266.74
1279.9
1293.28
1306.7
1319.97
1332.96
1345.52
1357.56
1369.06
1380.14
1391.35
1404.41
1424.74
1470.88
1614.76
2202.26
2886.41
1907.79
1494.97
1314.81
1237
1205.66
1194.97
1193.71
1197.32
1203.84
1212.34
1222.25
1233.18
1244.83
1256.96
1269.36
1281.84
1294.26
1306.47
1318.35
1329.77
1340.69
1351.09
1361.17
1371.53
1384.02
1404.13
1450.06
1591.13
2158.39
3028.14
1959.66
1511.54
1323.32
1245.81
1215.88
1205.87
1204.41
1207.22
1212.69
1220.03
1228.77
1238.53
1249.02
1260
1271.27
1282.64
1293.95
1305.07
1315.86
1326.21
1336.07
1345.43
1354.49
1363.85
1375.34
1394.42
1439.14
1578.1
2134.87
2611
2017.28
1647.09
1439.79
1333.62
1282.43
1258.5
1247.83
1244.11
1244.62
1248.01
1253.51
1260.57
1268.79
1277.83
1287.4
1297.27
1307.23
1317.09
1326.68
1335.88
1344.56
1352.69
1360.41
1368.25
1377.91
1394.73
1436.79
1573.72
2129.76
2570.85
2004.5
1661.7
1468.23
1365.12
1312.13
1285.02
1271.1
1264.38
1262.14
1263.01
1266.19
1271.11
1277.34
1284.52
1292.36
1300.58
1308.98
1317.35
1325.52
1333.33
1340.67
1347.5
1353.95
1360.58
1369.11
1384.94
1426.25
1562.38
2110.89
2487.97
1985.15
1671.74
1491.79
1393.32
1340.69
1312.21
1296.31
1287.42
1282.98
1281.69
1282.79
1285.74
1290.11
1295.54
1301.73
1308.4
1315.33
1322.3
1329.13
1335.65
1341.75
1347.37
1352.65
1358.12
1365.53
1380.29
1420.7
1556.32
2101.93
2450.01
1970.69
1671.27
1500.51
1407.47
1357.57
1330.12
1314.19
1304.64
1299.16
1296.62
1296.36
1297.89
1300.83
1304.85
1309.65
1314.97
1320.58
1326.28
1331.87
1337.19
1342.13
1346.64
1350.85
1355.33
1361.82
1375.81
1415.67
1551.2
2094
2421.89
1959.88
1668.95
1504.1
1415.38
1368.38
1342.65
1327.54
1318.12
1312.3
1309.09
1307.96
1308.49
1310.36
1313.26
1316.93
1321.12
1325.61
1330.2
1334.71
1338.98
1342.9
1346.44
1349.73
1353.35
1359.08
1372.45
1411.98
1547.73
2088.83
2403.53
1952.97
1666.7
1505.13
1419.37
1374.81
1350.88
1336.9
1328.06
1322.33
1318.89
1317.27
1317.15
1318.25
1320.3
1323.07
1326.34
1329.9
1333.55
1337.14
1340.52
1343.57
1346.28
1348.79
1351.71
1356.84
1369.78
1409.15
1545.39
2085.29
2390.61
1948.81
1665.17
1505.18
1421.25
1378.53
1356.17
1343.37
1335.25
1329.88
1326.46
1324.62
1324.09
1324.65
1326.08
1328.15
1330.68
1333.48
1336.36
1339.19
1341.81
1344.13
1346.15
1348.03
1350.39
1355.07
1367.7
1407.08
1543.96
2083.09
2381.44
1946.7
1664.48
1504.97
1422.01
1380.55
1359.46
1347.71
1340.35
1335.41
1332.17
1330.28
1329.53
1329.72
1330.69
1332.23
1334.18
1336.37
1338.63
1340.82
1342.82
1344.55
1346.01
1347.38
1349.31
1353.65
1366.1
1405.6
1543.25
2081.86
2374.77
1946.02
1664.55
1504.81
1422.19
1381.54
1361.4
1350.53
1343.86
1339.39
1336.39
1334.55
1333.69
1333.66
1334.3
1335.44
1336.94
1338.64
1340.4
1342.09
1343.59
1344.84
1345.85
1346.83
1348.42
1352.52
1364.89
1404.58
1543.08
2081.32
2369.81
1946.36
1665.25
1504.82
1422.1
1381.89
1362.44
1352.28
1346.21
1342.17
1339.44
1337.71
1336.82
1336.66
1337.07
1337.92
1339.07
1340.39
1341.75
1343.03
1344.14
1345.01
1345.67
1346.34
1347.69
1351.64
1363.98
1403.93
1543.31
2081.29
2366.04
1947.4
1666.43
1505.04
1421.91
1381.87
1362.88
1353.27
1347.7
1344.05
1341.57
1339.98
1339.12
1338.88
1339.14
1339.78
1340.68
1341.71
1342.76
1343.72
1344.51
1345.08
1345.48
1345.92
1347.09
1350.94
1363.31
1403.55
1543.85
2081.61
2363.12
1948.92
1667.98
1505.46
1421.7
1381.62
1362.93
1353.73
1348.56
1345.25
1343.01
1341.57
1340.76
1340.49
1340.66
1341.15
1341.85
1342.66
1343.47
1344.19
1344.74
1345.09
1345.28
1345.56
1346.61
1350.41
1362.84
1403.4
1544.62
2082.18
2360.78
1950.77
1669.81
1506.07
1421.52
1381.25
1362.71
1353.81
1348.97
1345.94
1343.92
1342.61
1341.88
1341.61
1341.72
1342.11
1342.68
1343.33
1343.96
1344.5
1344.86
1345.04
1345.09
1345.24
1346.22
1350.01
1362.53
1403.42
1545.56
2082.93
2358.87
1952.84
1671.84
1506.82
1421.4
1380.81
1362.33
1353.64
1349.04
1346.25
1344.42
1343.25
1342.59
1342.34
1342.43
1342.76
1343.23
1343.76
1344.27
1344.67
1344.9
1344.95
1344.89
1344.97
1345.91
1349.7
1362.33
1403.57
1546.62
2083.8
2357.25
1955.04
1674.02
1507.71
1421.33
1380.35
1361.83
1353.28
1348.88
1346.28
1344.62
1343.56
1342.98
1342.77
1342.86
1343.15
1343.56
1344.02
1344.43
1344.73
1344.87
1344.84
1344.71
1344.74
1345.65
1349.48
1362.23
1403.81
1547.77
2084.75
2355.85
1957.32
1676.3
1508.7
1421.32
1379.89
1361.27
1352.8
1348.55
1346.11
1344.58
1343.64
1343.13
1342.97
1343.07
1343.34
1343.72
1344.13
1344.48
1344.71
1344.79
1344.7
1344.53
1344.53
1345.45
1349.33
1362.2
1404.14
1548.99
2085.76
2354.6
1959.62
1678.65
1509.78
1421.38
1379.44
1360.67
1352.24
1348.1
1345.79
1344.37
1343.53
1343.09
1342.98
1343.1
1343.38
1343.75
1344.12
1344.44
1344.64
1344.67
1344.55
1344.36
1344.36
1345.29
1349.22
1362.23
1404.52
1550.25
2086.8
2353.46
1961.93
1681.04
1510.94
1421.49
1379.01
1360.05
1351.62
1347.56
1345.35
1344.04
1343.28
1342.92
1342.85
1343
1343.3
1343.67
1344.03
1344.33
1344.51
1344.53
1344.39
1344.19
1344.2
1345.17
1349.15
1362.3
1404.94
1551.55
2087.87
2352.39
1964.22
1683.46
1512.15
1421.65
1378.6
1359.43
1350.97
1346.97
1344.84
1343.61
1342.93
1342.63
1342.62
1342.8
1343.12
1343.5
1343.87
1344.17
1344.34
1344.36
1344.23
1344.03
1344.06
1345.06
1349.12
1362.41
1405.39
1552.87
2088.95
2351.38
1966.48
1685.88
1513.41
1421.85
1378.21
1358.8
1350.29
1346.33
1344.27
1343.12
1342.5
1342.26
1342.3
1342.53
1342.88
1343.27
1343.66
1343.97
1344.15
1344.17
1344.05
1343.88
1343.93
1344.98
1349.1
1362.54
1405.87
1554.21
2090.04
2350.4
1968.69
1688.31
1514.71
1422.1
1377.85
1358.18
1349.61
1345.66
1343.66
1342.57
1342.02
1341.84
1341.92
1342.19
1342.57
1343
1343.41
1343.73
1343.93
1343.98
1343.88
1343.73
1343.82
1344.91
1349.11
1362.68
1406.37
1555.55
2091.13
2349.44
1970.86
1690.72
1516.05
1422.39
1377.52
1357.58
1348.92
1344.98
1343.02
1341.99
1341.5
1341.37
1341.5
1341.81
1342.23
1342.69
1343.12
1343.47
1343.7
1343.77
1343.69
1343.58
1343.71
1344.85
1349.13
1362.84
1406.88
1556.9
2092.21
2348.49
1972.97
1693.12
1517.41
1422.71
1377.21
1356.98
1348.23
1344.29
1342.37
1341.38
1340.94
1340.86
1341.04
1341.4
1341.85
1342.35
1342.81
1343.2
1343.45
1343.55
1343.51
1343.43
1343.6
1344.8
1349.15
1363.01
1407.4
1558.25
2093.29
2347.55
1975.02
1695.5
1518.79
1423.06
1376.93
1356.4
1347.55
1343.6
1341.7
1340.76
1340.37
1340.34
1340.56
1340.96
1341.46
1341.99
1342.49
1342.9
1343.19
1343.33
1343.33
1343.29
1343.5
1344.75
1349.18
1363.19
1407.93
1559.6
2094.36
2346.61
1977.01
1697.86
1520.2
1423.44
1376.67
1355.83
1346.87
1342.91
1341.03
1340.13
1339.78
1339.79
1340.06
1340.5
1341.04
1341.61
1342.15
1342.6
1342.93
1343.1
1343.14
1343.14
1343.4
1344.71
1349.22
1363.37
1408.46
1560.95
2095.42
2345.67
1978.95
1700.19
1521.61
1423.85
1376.43
1355.28
1346.2
1342.22
1340.36
1339.5
1339.18
1339.24
1339.55
1340.03
1340.61
1341.22
1341.8
1342.29
1342.66
1342.87
1342.95
1342.99
1343.31
1344.67
1349.26
1363.55
1408.99
1562.29
2096.47
2344.73
1980.83
1702.5
1523.04
1424.28
1376.22
1354.75
1345.54
1341.53
1339.69
1338.86
1338.58
1338.68
1339.03
1339.55
1340.18
1340.83
1341.45
1341.98
1342.38
1342.64
1342.76
1342.85
1343.21
1344.63
1349.3
1363.74
1409.52
1563.63
2097.51
2343.78
1982.65
1704.78
1524.48
1424.73
1376.02
1354.23
1344.9
1340.86
1339.03
1338.22
1337.98
1338.12
1338.51
1339.07
1339.73
1340.43
1341.09
1341.66
1342.11
1342.4
1342.57
1342.7
1343.11
1344.59
1349.34
1363.92
1410.06
1564.96
2098.54
2342.83
1984.42
1707.02
1525.92
1425.21
1375.85
1353.73
1344.26
1340.19
1338.37
1337.58
1337.38
1337.55
1337.98
1338.59
1339.29
1340.02
1340.72
1341.34
1341.83
1342.17
1342.38
1342.56
1343.02
1344.55
1349.38
1364.1
1410.59
1566.28
2099.56
2341.87
1986.13
1709.24
1527.37
1425.71
1375.7
1353.24
1343.64
1339.52
1337.71
1336.95
1336.78
1336.99
1337.46
1338.1
1338.84
1339.62
1340.36
1341.02
1341.55
1341.93
1342.18
1342.41
1342.92
1344.51
1349.42
1364.29
1411.12
1567.6
2100.56
2340.9
1987.79
1711.43
1528.83
1426.22
1375.56
1352.77
1343.03
1338.87
1337.06
1336.33
1336.19
1336.43
1336.93
1337.61
1338.4
1339.21
1339.99
1340.69
1341.27
1341.69
1341.99
1342.26
1342.82
1344.47
1349.45
1364.47
1411.65
1568.91
2101.55
2339.92
1989.4
1713.59
1530.28
1426.75
1375.44
1352.31
1342.43
1338.23
1336.42
1335.71
1335.59
1335.87
1336.41
1337.13
1337.95
1338.8
1339.63
1340.37
1340.98
1341.45
1341.79
1342.11
1342.72
1344.43
1349.49
1364.65
1412.18
1570.21
2102.53
2338.94
1990.96
1715.72
1531.74
1427.3
1375.34
1351.87
1341.84
1337.59
1335.79
1335.09
1335.01
1335.31
1335.89
1336.65
1337.51
1338.4
1339.26
1340.05
1340.7
1341.21
1341.6
1341.96
1342.62
1344.38
1349.52
1364.83
1412.71
1571.5
2103.5
2337.95
1992.47
1717.81
1533.2
1427.87
1375.26
1351.44
1341.26
1336.97
1335.16
1334.48
1334.43
1334.76
1335.37
1336.17
1337.06
1338
1338.9
1339.72
1340.42
1340.97
1341.4
1341.81
1342.52
1344.34
1349.55
1365
1413.24
1572.79
2104.45
2336.96
1993.93
1719.88
1534.66
1428.45
1375.2
1351.02
1340.69
1336.35
1334.54
1333.88
1333.85
1334.22
1334.86
1335.69
1336.62
1337.59
1338.54
1339.4
1340.14
1340.74
1341.21
1341.66
1342.41
1344.29
1349.58
1365.18
1413.76
1574.06
2105.39
2335.96
1995.35
1721.92
1536.12
1429.05
1375.15
1350.62
1340.14
1335.75
1333.93
1333.29
1333.28
1333.68
1334.35
1335.22
1336.19
1337.2
1338.18
1339.08
1339.86
1340.5
1341.01
1341.51
1342.31
1344.24
1349.61
1365.35
1414.28
1575.33
2106.32
2334.95
1996.73
1723.92
1537.58
1429.65
1375.11
1350.23
1339.59
1335.15
1333.33
1332.7
1332.72
1333.14
1333.85
1334.75
1335.75
1336.8
1337.82
1338.76
1339.58
1340.26
1340.82
1341.36
1342.21
1344.19
1349.63
1365.52
1414.8
1576.59
2107.24
2333.94
1998.06
1725.9
1539.04
1430.28
1375.09
1349.85
1339.06
1334.56
1332.73
1332.12
1332.16
1332.61
1333.35
1334.28
1335.32
1336.4
1337.46
1338.44
1339.3
1340.02
1340.62
1341.21
1342.1
1344.14
1349.66
1365.68
1415.32
1577.84
2108.14
2332.93
1999.36
1727.86
1540.5
1430.91
1375.09
1349.49
1338.53
1333.98
1332.15
1331.54
1331.61
1332.09
1332.86
1333.82
1334.9
1336.01
1337.11
1338.13
1339.02
1339.78
1340.42
1341.05
1341.99
1344.08
1349.68
1365.85
1415.83
1579.09
2109.04
2331.91
2000.61
1729.78
1541.95
1431.56
1375.1
1349.14
1338.02
1333.41
1331.56
1330.98
1331.06
1331.57
1332.37
1333.36
1334.47
1335.62
1336.76
1337.81
1338.75
1339.55
1340.23
1340.9
1341.88
1344.03
1349.7
1366.01
1416.35
1580.32
2109.92
2330.88
2001.83
1731.68
1543.4
1432.21
1375.12
1348.8
1337.51
1332.85
1330.99
1330.41
1330.52
1331.05
1331.88
1332.91
1334.05
1335.24
1336.4
1337.5
1338.47
1339.31
1340.03
1340.74
1341.77
1343.97
1349.71
1366.17
1416.86
1581.55
2110.79
2329.86
2003.01
1733.54
1544.84
1432.88
1375.16
1348.47
1337.02
1332.29
1330.43
1329.86
1329.98
1330.54
1331.4
1332.46
1333.63
1334.85
1336.06
1337.19
1338.2
1339.07
1339.83
1340.59
1341.66
1343.91
1349.73
1366.33
1417.37
1582.78
2111.65
2328.83
2004.16
1735.39
1546.29
1433.56
1375.21
1348.16
1336.53
1331.74
1329.87
1329.31
1329.45
1330.04
1330.92
1332.01
1333.22
1334.47
1335.71
1336.88
1337.92
1338.84
1339.64
1340.43
1341.55
1343.85
1349.74
1366.49
1417.87
1583.99
2112.49
2327.79
2005.28
1737.2
1547.72
1434.24
1375.27
1347.85
1336.06
1331.2
1329.32
1328.77
1328.93
1329.54
1330.45
1331.57
1332.81
1334.1
1335.37
1336.57
1337.65
1338.6
1339.44
1340.27
1341.43
1343.79
1349.75
1366.65
1418.38
1585.2
2113.33
2326.76
2006.36
1739
1549.16
1434.94
1375.35
1347.56
1335.59
1330.67
1328.77
1328.23
1328.41
1329.05
1329.98
1331.13
1332.4
1333.72
1335.03
1336.26
1337.38
1338.37
1339.24
1340.12
1341.32
1343.72
1349.76
1366.8
1418.88
1586.4
2114.16
2325.72
2007.41
1740.76
1550.58
1435.64
1375.43
1347.28
1335.13
1330.15
1328.23
1327.7
1327.9
1328.56
1329.52
1330.7
1332
1333.35
1334.69
1335.95
1337.11
1338.13
1339.05
1339.96
1341.2
1343.66
1349.77
1366.95
1419.38
1587.59
2114.97
2324.68
2008.43
1742.5
1552.01
1436.36
1375.53
1347.01
1334.68
1329.63
1327.7
1327.18
1327.39
1328.07
1329.06
1330.26
1331.59
1332.98
1334.35
1335.65
1336.84
1337.9
1338.85
1339.8
1341.09
1343.59
1349.78
1367.1
1419.88
1588.77
2115.78
2323.64
2009.42
1744.22
1553.42
1437.07
1375.64
1346.74
1334.24
1329.12
1327.17
1326.66
1326.89
1327.59
1328.61
1329.84
1331.2
1332.61
1334.01
1335.35
1336.57
1337.67
1338.65
1339.64
1340.97
1343.52
1349.78
1367.25
1420.38
1589.95
2116.58
2322.59
2010.39
1745.92
1554.84
1437.8
1375.76
1346.49
1333.81
1328.62
1326.65
1326.14
1326.39
1327.11
1328.16
1329.41
1330.8
1332.25
1333.68
1335.05
1336.31
1337.44
1338.46
1339.48
1340.85
1343.45
1349.78
1367.4
1420.88
1591.12
2117.36
2321.55
2011.33
1747.59
1556.24
1438.54
1375.89
1346.25
1333.38
1328.12
1326.14
1325.63
1325.9
1326.64
1327.71
1328.99
1330.41
1331.88
1333.35
1334.75
1336.04
1337.2
1338.26
1339.32
1340.73
1343.38
1349.78
1367.54
1421.37
1592.29
2118.14
2320.5
2012.24
1749.24
1557.64
1439.28
1376.04
1346.02
1332.97
1327.64
1325.63
1325.13
1325.41
1326.18
1327.26
1328.57
1330.02
1331.52
1333.02
1334.45
1335.78
1336.97
1338.06
1339.16
1340.61
1343.31
1349.78
1367.69
1421.87
1593.45
2118.91
2319.46
2013.12
1750.86
1559.04
1440.02
1376.19
1345.8
1332.56
1327.15
1325.13
1324.63
1324.93
1325.71
1326.83
1328.16
1329.63
1331.17
1332.69
1334.16
1335.51
1336.74
1337.87
1339
1340.49
1343.24
1349.78
1367.83
1422.36
1594.6
2119.66
2318.41
2013.98
1752.47
1560.42
1440.78
1376.35
1345.58
1332.16
1326.68
1324.63
1324.14
1324.45
1325.25
1326.39
1327.75
1329.25
1330.81
1332.37
1333.86
1335.25
1336.51
1337.67
1338.84
1340.37
1343.16
1349.78
1367.97
1422.85
1595.74
2120.41
2317.36
2014.82
1754.05
1561.8
1441.53
1376.52
1345.38
1331.77
1326.21
1324.14
1323.65
1323.98
1324.8
1325.96
1327.34
1328.87
1330.46
1332.04
1333.57
1334.99
1336.28
1337.48
1338.68
1340.25
1343.09
1349.78
1368.11
1423.34
1596.88
2121.15
2316.31
2015.63
1755.61
1563.18
1442.3
1376.7
1345.18
1331.38
1325.74
1323.66
1323.17
1323.51
1324.35
1325.53
1326.94
1328.49
1330.11
1331.72
1333.28
1334.73
1336.05
1337.28
1338.52
1340.13
1343.01
1349.77
1368.25
1423.83
1598.01
2121.88
2315.27
2016.42
1757.16
1564.55
1443.07
1376.89
1345
1331
1325.29
1323.18
1322.69
1323.04
1323.9
1325.1
1326.54
1328.11
1329.76
1331.4
1332.99
1334.47
1335.83
1337.08
1338.36
1340
1342.93
1349.76
1368.39
1424.31
1599.14
2122.61
2314.22
2017.19
1758.68
1565.91
1443.84
1377.09
1344.82
1330.63
1324.84
1322.7
1322.22
1322.58
1323.46
1324.68
1326.14
1327.74
1329.41
1331.08
1332.7
1334.21
1335.6
1336.89
1338.2
1339.88
1342.86
1349.76
1368.53
1424.8
1600.26
2123.32
2313.17
2017.94
1760.18
1567.26
1444.62
1377.3
1344.65
1330.27
1324.39
1322.23
1321.75
1322.12
1323.02
1324.26
1325.74
1327.37
1329.07
1330.77
1332.41
1333.95
1335.37
1336.69
1338.04
1339.75
1342.78
1349.75
1368.67
1425.28
1601.38
2124.03
2312.12
2018.66
1761.66
1568.61
1445.4
1377.52
1344.49
1329.91
1323.95
1321.77
1321.28
1321.67
1322.58
1323.85
1325.35
1327
1328.73
1330.45
1332.12
1333.69
1335.14
1336.5
1337.88
1339.63
1342.7
1349.74
1368.8
1425.77
1602.48
2124.72
2311.08
2019.37
1763.12
1569.95
1446.18
1377.74
1344.34
1329.56
1323.52
1321.31
1320.82
1321.22
1322.15
1323.43
1324.96
1326.64
1328.39
1330.14
1331.84
1333.44
1334.92
1336.3
1337.71
1339.5
1342.62
1349.73
1368.94
1426.25
1603.59
2125.41
2310.03
2020.06
1764.57
1571.28
1446.97
1377.98
1344.19
1329.22
1323.09
1320.85
1320.37
1320.78
1321.72
1323.03
1324.57
1326.27
1328.05
1329.83
1331.56
1333.18
1334.69
1336.11
1337.55
1339.38
1342.53
1349.71
1369.07
1426.73
1604.68
2126.09
2308.99
2020.73
1765.99
1572.61
1447.77
1378.22
1344.06
1328.88
1322.66
1320.4
1319.92
1320.33
1321.3
1322.62
1324.19
1325.91
1327.71
1329.52
1331.27
1332.93
1334.47
1335.91
1337.39
1339.25
1342.45
1349.7
1369.21
1427.21
1605.77
2126.77
2307.94
2021.38
1767.4