/*--------------------------------*- C++ -*----------------------------------*\
  =========                 |
  \\      /  F ield         | OpenFOAM: The Open Source CFD Toolbox
   \\    /   O peration     | Website:  https://openfoam.org
    \\  /    A nd           | Version:  8
     \\/     M anipulation  |
\*---------------------------------------------------------------------------*/
FoamFile
{
    version     2.0;
    format      ascii;
    class       volVectorField;
    location    "903";
    object      U;
}
// * * * * * * * * * * * * * * * * * * * * * * * * * * * * * * * * * * * * * //

dimensions      [0 1 -1 0 0 0 0];

internalField   nonuniform List<vector> 
6300
(
(-2.730253248e-05 -1.236646949e-05 5.66060648e-13)
(9.600122305e-05 -2.281246735e-05 3.281606594e-13)
(0.0003824668492 -2.587286661e-05 4.929707633e-13)
(0.0008462914059 -2.596007201e-05 5.403502829e-13)
(0.001516074546 -2.553422284e-05 4.878088334e-13)
(0.00243203496 -2.525040317e-05 3.543766703e-13)
(0.003645371878 -2.512917397e-05 4.098444075e-13)
(0.005215748449 -2.489224186e-05 4.778084698e-13)
(0.007208338614 -2.425334925e-05 7.583211127e-13)
(0.009691645026 -2.302595828e-05 9.957920474e-13)
(0.01273624565 -2.110735274e-05 6.923411775e-13)
(0.01641412689 -1.84442352e-05 7.690388686e-13)
(0.02079829009 -1.501258566e-05 8.527698653e-13)
(0.02596247701 -1.080709513e-05 9.238327069e-13)
(0.03198095865 -5.834549824e-06 5.879282785e-13)
(0.03892836802 -1.095264254e-07 -8.470679425e-15)
(0.04687956718 6.347901961e-06 4.934171588e-13)
(0.05590954352 1.351225625e-05 1.224287506e-12)
(0.06609332766 2.135005919e-05 1.288856566e-12)
(0.0775059282 2.981334389e-05 1.348238368e-12)
(0.09022227274 3.882726438e-05 7.669526251e-13)
(0.1043171443 4.82679347e-05 -1.025367095e-13)
(0.1198650992 5.792450318e-05 9.663617301e-14)
(0.1369403763 6.743547285e-05 7.092287173e-13)
(0.1556169659 7.616774566e-05 1.448924051e-12)
(0.1759699954 8.294860376e-05 8.101633213e-13)
(0.198085575 8.580039201e-05 7.936660604e-14)
(0.2221197482 8.280920677e-05 -8.35790951e-14)
(0.2486274551 7.189526017e-05 6.207180322e-24)
(0.2804670211 5.272010216e-06 2.946345116e-28)
(6.732217327e-06 2.138442374e-06 1.212373064e-12)
(0.0001838873077 2.862362579e-07 1.337178781e-12)
(0.0005251954862 2.057897472e-06 1.146847504e-12)
(0.001049634411 3.377980119e-06 1.112423767e-12)
(0.001787723902 3.920191278e-06 1.390601207e-12)
(0.00278115995 4.199123013e-06 1.668403826e-12)
(0.004081820896 4.894799487e-06 1.476887003e-12)
(0.005749065627 6.536868939e-06 1.116684805e-12)
(0.007846877885 9.298622694e-06 7.654023622e-13)
(0.0104419281 1.306219468e-05 1.445558222e-12)
(0.01360255645 1.759939109e-05 2.121186409e-12)
(0.01739826565 2.268527941e-05 1.557844743e-12)
(0.02189941769 2.81278671e-05 1.679264625e-12)
(0.02717700936 3.376510819e-05 1.806161426e-12)
(0.03330249165 3.94591515e-05 1.958809404e-12)
(0.04034762425 4.509347681e-05 1.784366577e-12)
(0.04838436073 5.05712477e-05 1.922295928e-12)
(0.05748475996 5.581317807e-05 2.412249806e-12)
(0.06772091866 6.075325641e-05 1.578381413e-12)
(0.07916492097 6.533107703e-05 4.68424122e-13)
(0.09188879628 6.947864252e-05 1.5667407e-12)
(0.1059644787 7.309957373e-05 2.367231431e-12)
(0.121463763 7.603905119e-05 1.557125116e-12)
(0.138458283 7.804055954e-05 2.918935668e-13)
(0.1570197293 7.864508113e-05 8.098804847e-13)
(0.1772216153 7.695869451e-05 2.19374144e-12)
(0.1991500564 7.19208499e-05 1.883931007e-12)
(0.2229637746 6.502070315e-05 -1.612821681e-13)
(0.2492199372 5.858957193e-05 -1.83646496e-13)
(0.2807690481 1.061695383e-05 0)
(2.923458671e-05 7.84722877e-06 2.322539446e-12)
(0.0002454200195 1.784703525e-05 2.619908261e-12)
(0.0006267178109 2.779236121e-05 2.42045418e-12)
(0.001193935275 3.369929005e-05 3.10862754e-12)
(0.001978178379 3.624899073e-05 2.847964084e-12)
(0.003021837793 3.701742772e-05 2.394700292e-12)
(0.004377525014 3.770914725e-05 3.167070911e-12)
(0.006104957008 3.958159873e-05 3.276142908e-12)
(0.008267794318 4.311304345e-05 2.72183961e-12)
(0.01093174229 4.814134807e-05 3.04871934e-12)
(0.01416377135 5.42225525e-05 4.798038818e-12)
(0.01803181779 6.088560402e-05 4.86620397e-12)
(0.02260459002 6.77220234e-05 3.96325357e-12)
(0.02795138621 7.439388386e-05 4.307058742e-12)
(0.03414192955 8.062496062e-05 4.42952515e-12)
(0.04124623046 8.619431257e-05 3.947845087e-12)
(0.04933447856 9.093273414e-05 3.105009187e-12)
(0.05847696046 9.472026046e-05 2.456084158e-12)
(0.06874400053 9.748270203e-05 3.653524552e-12)
(0.08020591605 9.91859743e-05 5.237371444e-12)
(0.0929329855 9.9826224e-05 3.317154716e-12)
(0.1069954183 9.941399733e-05 1.078320427e-12)
(0.1224633252 9.795118198e-05 3.060583195e-12)
(0.1394067219 9.539453096e-05 2.962085957e-12)
(0.157895795 9.155264099e-05 1.701864608e-12)
(0.1780027773 8.588824371e-05 1.497047939e-12)
(0.199812817 7.804484947e-05 3.832584092e-12)
(0.2234835926 7.058208903e-05 2.482840387e-12)
(0.2495726318 6.427387408e-05 -3.17990469e-13)
(0.2809513967 1.823184089e-05 1.340767962e-23)
(4.922262712e-05 1.255767029e-05 2.974611602e-12)
(0.0003093573011 3.263291841e-05 3.755675882e-12)
(0.0007390305624 5.105503576e-05 3.462218465e-12)
(0.001358255967 6.317698942e-05 3.187423175e-12)
(0.002197774081 6.959870439e-05 4.058477711e-12)
(0.003300385386 7.236845479e-05 4.138924862e-12)
(0.004719526842 7.395736277e-05 3.488534932e-12)
(0.006515556082 7.636915722e-05 4.769174488e-12)
(0.008752079565 8.057449223e-05 4.990909732e-12)
(0.01149394703 8.658080779e-05 3.03321531e-12)
(0.01480669676 9.388517072e-05 3.67173026e-12)
(0.01875652967 0.0001018644487 5.724291167e-12)
(0.02341028301 0.0001099485372 5.372797709e-12)
(0.02883532182 0.0001176578342 5.786568026e-12)
(0.03509940089 0.0001246002824 6.202221485e-12)
(0.04227053878 0.0001304654765 5.798147131e-12)
(0.05041691711 0.0001350212978 4.133798012e-12)
(0.05960680598 0.0001381117142 4.180548678e-12)
(0.06990851015 0.0001396536344 6.722282547e-12)
(0.08139033433 0.0001396308503 5.150068723e-12)
(0.09412055893 0.0001380831282 4.461981663e-12)
(0.1081674222 0.0001350874267 6.819607309e-12)
(0.1235991118 0.0001307289953 4.158559352e-12)
(0.1404838016 0.0001250528708 1.518662144e-12)
(0.1588899818 0.0001179445787 4.579142522e-12)
(0.1788884482 0.0001089507027 4.30952995e-12)
(0.2005633213 9.786793987e-05 2.117554584e-12)
(0.2240721489 8.713982695e-05 2.4264671e-13)
(0.2499774068 7.623221068e-05 0)
(0.2811721718 2.387152653e-05 -6.195178685e-26)
(6.956627478e-05 1.708480042e-05 4.705893005e-12)
(0.0003757155882 4.63226298e-05 5.62720908e-12)
(0.0008566970812 7.30245382e-05 4.969126668e-12)
(0.001531304132 9.191154519e-05 4.685763607e-12)
(0.002429419895 0.0001032672018 5.335941857e-12)
(0.00359379618 0.0001092408206 5.478268186e-12)
(0.005078432295 0.0001127450415 5.723501665e-12)
(0.006944324952 0.0001163618525 4.863738967e-12)
(0.009255203992 0.0001215533326 6.666095149e-12)
(0.0120752633 0.0001285899429 7.060019943e-12)
(0.01546874154 0.0001370134504 5.559732319e-12)
(0.0195001691 0.0001461251497 7.207731431e-12)
(0.02423454209 0.0001552434633 6.861167666e-12)
(0.02973730883 0.0001637805624 7.352910558e-12)
(0.03607426859 0.0001712511348 8.038337855e-12)
(0.04331146018 0.0001772694649 7.403773727e-12)
(0.0515150698 0.000181547166 7.967519171e-12)
(0.06075136369 0.0001838914409 7.58778637e-12)
(0.07108664305 0.0001842015163 6.634225373e-12)
(0.08258721772 0.0001824612672 5.659668991e-12)
(0.09531939325 0.0001787255968 9.000643156e-12)
(0.1093494708 0.00017309718 6.732875099e-12)
(0.1247437615 0.0001656912773 5.076351385e-12)
(0.1415686607 0.0001565787681 5.413742406e-12)
(0.1598910431 0.0001456640353 1.981132873e-12)
(0.1797803488 0.000132528716 1.807345673e-12)
(0.2013198024 0.000117019895 1.708459112e-12)
(0.2246674161 0.0001013812516 4.937036611e-12)
(0.2503917228 8.462366326e-05 4.96210599e-12)
(0.2814028617 2.720630294e-05 -6.222666225e-13)
(9.067771532e-05 2.158183296e-05 4.90840948e-12)
(0.0004449005437 5.96795764e-05 6.34952685e-12)
(0.0009795569262 9.448509507e-05 6.246673842e-12)
(0.001712239561 0.0001203227513 5.002018364e-12)
(0.002671781631 0.0001372005036 5.231142863e-12)
(0.003900553182 0.0001472085675 6.864406005e-12)
(0.005452819245 0.000153477773 7.209981195e-12)
(0.007390084394 0.0001589908852 7.683505915e-12)
(0.009776253605 0.0001656256478 6.431221018e-12)
(0.01267500285 0.0001739310825 7.447021554e-12)
(0.01614939388 0.0001835473307 5.096424181e-12)
(0.02026236244 0.0001937505187 6.28018399e-12)
(0.02507710519 0.0002037837309 8.354852505e-12)
(0.03065717943 0.0002129758855 6.825791673e-12)
(0.03706644898 0.0002207660117 7.140324903e-12)
(0.04436899101 0.000226704872 8.904882135e-12)
(0.05262901492 0.0002304544151 1.006397032e-11)
(0.06191080302 0.0002317867387 6.316065446e-12)
(0.07227867453 0.00023058032 8.241110155e-12)
(0.08379697023 0.0002268118342 1.004650739e-11)
(0.09653005223 0.0002205405233 7.537582806e-12)
(0.1105423217 0.0002118825698 8.187126085e-12)
(0.1258982565 0.0002009729252 6.314113092e-12)
(0.1426625238 0.0001879063781 6.366874038e-12)
(0.1609004223 0.0001726208385 2.328058169e-12)
(0.1806800592 0.0001547616594 1.849091429e-12)
(0.202083807 0.000134256201 6.283460943e-12)
(0.2252703817 0.0001132790457 1.78577038e-12)
(0.2508145879 9.080973912e-05 4.262983094e-13)
(0.2816401641 2.950182881e-05 -7.635190104e-13)
(0.00011304516 2.625738277e-05 5.862997659e-12)
(0.0005178550952 7.33302196e-05 7.659548881e-12)
(0.001108631164 0.0001162387907 7.56495226e-12)
(0.001901887275 0.0001491311019 7.515136704e-12)
(0.002925414125 0.0001718651597 7.197267812e-12)
(0.004221055944 0.0001864457984 8.278542418e-12)
(0.005843129795 0.0001961039329 8.725598405e-12)
(0.00785348514 0.0002040876035 9.313988453e-12)
(0.01031616702 0.0002125989264 9.852253336e-12)
(0.01329440097 0.0002224409909 1.049407263e-11)
(0.01685016307 0.0002333716724 1.109344647e-11)
(0.02104486358 0.0002446719653 9.089457313e-12)
(0.02593994256 0.0002555344762 9.820235142e-12)
(0.03159709497 0.0002652230796 1.104167691e-11)
(0.03807827114 0.0002731148137 1.07269689e-11)
(0.04544560696 0.0002787072819 7.755096234e-12)
(0.05376135464 0.0002816204669 8.148838653e-12)
(0.06308783279 0.0002815967027 8.068816129e-12)
(0.07348740128 0.0002784973745 8.173806704e-12)
(0.08502245519 0.0002722945799 8.934603922e-12)
(0.09775544074 0.0002630548331 8.182173398e-12)
(0.1117488874 0.0002509127626 9.614660538e-12)
(0.1270654718 0.0002360325856 8.127435776e-12)
(0.1437681565 0.0002185507114 7.094257437e-12)
(0.161920682 0.0001984664085 7.91947121e-12)
(0.1815898209 0.0001755223232 7.078430306e-12)
(0.2028571137 0.0001497693087 2.164185112e-12)
(0.2258820876 0.0001234296888 1.011239191e-12)
(0.2512458059 9.565247618e-05 -5.128713618e-13)
(0.2818828865 3.121530013e-05 -3.550327489e-23)
(0.0001369518375 3.121765825e-05 8.341115839e-12)
(0.0005951743093 8.764063513e-05 9.043514462e-12)
(0.00124461865 0.0001388290543 8.893657972e-12)
(0.002100848217 0.0001789175365 8.890023846e-12)
(0.003190709499 0.0002077436045 7.214062031e-12)
(0.004555501911 0.0002272628174 7.649168841e-12)
(0.006249469171 0.0002407596589 1.026876392e-11)
(0.008334656967 0.0002516591648 1.094092558e-11)
(0.01087517396 0.0002624075741 9.819069341e-12)
(0.01393381136 0.0002740229292 9.495740468e-12)
(0.01757152121 0.0002863803449 1.09120719e-11)
(0.02184824721 0.0002987819362 1.043763349e-11)
(0.0268237156 0.0003103869749 1.129830627e-11)
(0.0325577896 0.0003204083454 1.272102353e-11)
(0.03911053037 0.0003281725165 1.199793104e-11)
(0.04654215448 0.0003331337287 1.341859715e-11)
(0.05491297795 0.0003348786448 1.268319611e-11)
(0.06428337753 0.0003331276972 1.442283307e-11)
(0.07471377492 0.0003277328507 3.985001412e-12)
(0.08626464344 0.0003186695853 5.410082633e-12)
(0.09899653595 0.0003060209886 8.631124277e-12)
(0.1129701356 0.0002899518473 1.035099211e-11)
(0.1282463374 0.000270671424 9.403649834e-12)
(0.1448864174 0.0002483791561 3.600919676e-12)
(0.162952559 0.0002231630939 3.04693703e-12)
(0.1825101943 0.0001948949825 1.58976488e-12)
(0.2036400331 0.0001637922875 9.304912599e-12)
(0.2265024672 0.0001322072374 7.114854181e-12)
(0.2516847802 9.954304783e-05 2.079271297e-13)
(0.2821301908 3.253791891e-05 -1.0454939e-12)
(0.0001625513066 3.651392154e-05 8.089475705e-12)
(0.0006772438295 0.0001028040843 1.269176783e-11)
(0.001388039154 0.0001625791279 1.028096414e-11)
(0.002309644071 0.0002100702939 1.033055348e-11)
(0.003468086098 0.0002452012013 1.043000523e-11)
(0.004904173845 0.0002699352361 8.580517813e-12)
(0.006672024848 0.0002876053585 9.248609186e-12)
(0.008833767676 0.0003017630701 1.077834216e-11)
(0.01145348586 0.0003150371399 1.307189503e-11)
(0.01459352015 0.0003286201058 1.398900738e-11)
(0.01831383402 0.0003424937905 1.229869971e-11)
(0.02267295184 0.0003559887524 1.184914612e-11)
(0.02772892588 0.0003682428945 1.276200357e-11)
(0.03353981757 0.0003784294385 1.446730707e-11)
(0.0401638244 0.0003858344181 1.347629716e-11)
(0.04765926623 0.0003898782237 1.53555075e-11)
(0.05608454467 0.0003901233261 1.060342626e-11)
(0.06549811584 0.000386277428 1.064677771e-11)
(0.0759584847 0.0003781924471 1.568585918e-11)
(0.08752422412 0.000365857459 9.514590277e-12)
(0.1002540155 0.0003493837927 1.032776818e-11)
(0.1142067139 0.0003289802572 1.088244629e-11)
(0.1294414503 0.0003049181333 4.105653599e-12)
(0.1460178211 0.0002774808194 9.637566136e-12)
(0.1639964504 0.0002468699322 1.09780177e-11)
(0.1834414149 0.0002131149159 1.344941043e-12)
(0.2044325837 0.0001766356719 2.351035262e-12)
(0.2271312532 0.0001399637453 9.782883332e-13)
(0.2521309247 0.0001027773544 8.529157245e-12)
(0.2823814436 3.360517595e-05 8.082356203e-12)
(0.0001899549142 4.217799076e-05 7.244473522e-12)
(0.0007643686318 0.0001189334941 1.212289637e-11)
(0.001539339452 0.0001876901705 1.428886332e-11)
(0.002528777488 0.0002428495943 1.176526586e-11)
(0.003758018417 0.0002845046687 1.190175477e-11)
(0.005267472778 0.0003146863927 1.229309209e-11)
(0.007111133031 0.0003367925703 1.023077348e-11)
(0.009351133766 0.0003544767945 1.400011791e-11)
(0.01205144937 0.0003705066495 1.4852546e-11)
(0.01527393528 0.0003862132599 1.340890643e-11)
(0.0190775811 0.0004016704188 1.371498535e-11)
(0.02351952728 0.0004162388539 1.316556879e-11)
(0.02865618641 0.0004290434344 1.095774067e-11)
(0.03454384705 0.0004392270458 1.144156166e-11)
(0.04123886768 0.0004460445034 1.488811188e-11)
(0.04879769368 0.0004488914648 1.66584057e-11)
(0.05727683362 0.0004473154397 1.787549857e-11)
(0.06673284318 0.0004410209598 1.09501818e-11)
(0.07722233155 0.0004298700032 1.24012604e-11)
(0.08880199023 0.0004138762222 1.619388282e-11)
(0.1015286475 0.0003931914443 1.217438213e-11)
(0.1154593474 0.0003680825925 1.120764244e-11)
(0.1306514666 0.0003388994801 1.848266264e-11)
(0.1471629261 0.0003060286766 9.989271751e-12)
(0.1650527829 0.0002698071917 1.154620632e-11)
(0.184383738 0.0002304460947 9.173268554e-12)
(0.2052348126 0.0001885934939 2.205688031e-12)
(0.2277682581 0.0001469842965 1.869061268e-12)
(0.2525838401 0.0001055639905 -5.51742552e-13)
(0.2826362438 3.450315075e-05 -1.917747558e-13)
(0.0002192600944 4.823384539e-05 1.353643029e-11)
(0.0008568159807 0.0001361051256 1.365790401e-11)
(0.001698921241 0.0002142985362 1.344848512e-11)
(0.002758727023 0.0002774387019 1.612175353e-11)
(0.004060998041 0.0003258535026 1.340568993e-11)
(0.005645859079 0.000361697289 1.192420937e-11)
(0.007567213966 0.0003884589655 1.121216168e-11)
(0.009887159324 0.0004098866696 1.215185371e-11)
(0.01266948811 0.0004288578051 1.414839798e-11)
(0.01597552664 0.0004468126486 1.47556293e-11)
(0.01986329086 0.0004639014419 1.818083032e-11)
(0.0243885614 0.0004795135611 1.909525086e-11)
(0.02960614021 0.0004927665144 1.667780537e-11)
(0.03557056942 0.0005027806265 1.595114273e-11)
(0.04233639147 0.0005087878527 1.232702006e-11)
(0.049958199 0.0005101678032 1.326265728e-11)
(0.05849062758 0.0005064621007 1.848309092e-11)
(0.06798835269 0.0004973816531 1.913199024e-11)
(0.07850610597 0.0004828087257 1.269119577e-11)
(0.09009871633 0.0004627926352 5.342163382e-12)
(0.1028211741 0.0004375378424 1.327600147e-11)
(0.1167287254 0.0004073831339 1.226336157e-11)
(0.1318770014 0.0003727723021 7.155505021e-12)
(0.1483222464 0.0003342122751 1.011416314e-11)
(0.1661219387 0.0002921940698 1.080836246e-11)
(0.185337388 0.0002471292812 3.464738277e-12)
(0.2060467627 0.0001999105586 2.059631226e-12)
(0.2284133499 0.0001534835358 1.204262957e-11)
(0.2530432575 0.000108044258 9.567639969e-12)
(0.2828943313 3.528513192e-05 -1.797829099e-12)
(0.0002505612356 5.470270486e-05 1.164000257e-11)
(0.0009548378759 0.0001543792539 1.844927027e-11)
(0.001867163223 0.0002425075295 1.4964492e-11)
(0.002999956477 0.0003139773599 1.307814087e-11)
(0.004377526012 0.0003694057431 1.493970752e-11)
(0.006039831545 0.0004111205703 1.853696786e-11)
(0.00804074799 0.0004427318191 1.584319366e-11)
(0.01044231601 0.0004680850544 1.322332508e-11)
(0.01330808844 0.0004901496747 1.53722515e-11)
(0.01669881715 0.0005104522398 1.604948573e-11)
(0.02067153424 0.0005292050204 1.539365915e-11)
(0.02528067581 0.0005458228624 1.770568971e-11)
(0.03057945644 0.0005594197075 1.823694577e-11)
(0.03662069526 0.0005690998932 1.304664929e-11)
(0.04345714039 0.0005740800576 1.311021167e-11)
(0.05114155181 0.0005737320121 1.8995666e-11)
(0.05972671168 0.0005676003022 1.957238806e-11)
(0.06926543354 0.000555411623 2.118219231e-11)
(0.07981058939 0.0005370785288 2.107664752e-11)
(0.09141516087 0.0005126968694 1.280887124e-11)
(0.1041323159 0.0004825355889 6.351109213e-12)
(0.1180155123 0.0004470183178 1.329158977e-11)
(0.1331186406 0.0004066969283 2.216465742e-11)
(0.1494962664 0.0003622139148 1.225697701e-11)
(0.1672042787 0.0003142299201 3.703313659e-12)
(0.1863025796 0.0002633713464 3.384134153e-12)
(0.2068684977 0.0002107839603 6.414223913e-13)
(0.2290664583 0.0001596220129 2.01922684e-12)
(0.2535090117 0.0001103158887 1.625978868e-12)
(0.2831555375 3.598572101e-05 -2.076895682e-12)
(0.0002839546905 6.160538491e-05 1.01400512e-11)
(0.001058683688 0.0001738102367 1.707576105e-11)
(0.002044436302 0.0002724049049 2.011443305e-11)
(0.003252924999 0.0003525823043 1.985050028e-11)
(0.004708112784 0.0004152958074 1.646165798e-11)
(0.006449918723 0.0004630920735 1.464302704e-11)
(0.008532262807 0.0004997328421 1.499418493e-11)
(0.01101713111 0.0005291702036 1.424713447e-11)
(0.01396779196 0.0005544558632 1.960063488e-11)
(0.01744437887 0.0005771857007 2.551680708e-11)
(0.02150292388 0.0005976215486 2.180912132e-11)
(0.02619652639 0.0006151999907 1.916486603e-11)
(0.0315768321 0.0006290339956 1.970691909e-11)
(0.03769495739 0.0006382175503 1.979347995e-11)
(0.04460187598 0.0006419589124 1.874698698e-11)
(0.05234853385 0.0006396298557 1.548552298e-11)
(0.06098587812 0.0006307863201 1.406828909e-11)
(0.07056487731 0.0006151798875 2.319803092e-11)
(0.08113656013 0.0005927632137 2.220603394e-11)
(0.09275207609 0.0005636891636 2.304323486e-11)
(0.1054627822 0.0005283025174 2.08630057e-11)
(0.1193203572 0.0004871238917 1.429136618e-11)
(0.1343769549 0.000440826115 6.21969634e-12)
(0.1506854583 0.0003902003967 7.37511645e-12)
(0.1683001566 0.000336089799 2.251239835e-12)
(0.1872795367 0.00027934582 1.261791889e-11)
(0.2077001121 0.0002213705222 9.518662812e-12)
(0.2297275765 0.0001655202924 1.864231492e-12)
(0.2539810176 0.0001124478519 1.494528252e-12)
(0.2834197563 3.662816983e-05 -2.354528354e-12)
(0.0003195406614 6.89632333e-05 1.691629581e-11)
(0.00116860665 0.0001944512306 1.480614125e-11)
(0.002231112498 0.0003040720845 1.617193389e-11)
(0.003518094192 0.0003933591218 1.578437159e-11)
(0.00505327998 0.0004636457389 1.804168043e-11)
(0.006876674185 0.0005177387788 2.236265056e-11)
(0.009042324792 0.0005595819248 2.313879361e-11)
(0.01161217925 0.0005932464539 1.987073029e-11)
(0.01464918891 0.0006218624831 1.650727728e-11)
(0.01821282924 0.0006470832493 1.928287945e-11)
(0.02235811231 0.0006692099623 1.9916116e-11)
(0.02713680322 0.0006876972968 2.053612546e-11)
(0.0325989929 0.0007016591686 2.106674905e-11)
(0.03879411245 0.0007101841798 2.173980649e-11)
(0.0457713788 0.0007124786656 1.944138762e-11)
(0.0535799415 0.0007079217166 2.470246305e-11)
(0.06226892895 0.000696088815 1.480006365e-11)
(0.07188748142 0.0006767652526 1.064681337e-11)
(0.08248479875 0.0006499532737 6.800745872e-12)
(0.09411021176 0.0006158728613 1.025127792e-11)
(0.1068132779 0.000574955367 6.07490682e-12)
(0.1206439037 0.0005278295397 1.526110785e-11)
(0.1356525089 0.0004753007984 2.313848574e-11)
(0.1518902907 0.0004183205585 2.65299574e-11)
(0.1694099311 0.0003579246757 2.190224826e-11)
(0.1882685004 0.0002951967608 1.387411389e-11)
(0.2085417385 0.0002317948447 1.715267294e-13)
(0.2303967514 0.0001712696427 1.709487317e-12)
(0.254459255 0.0001144895641 -3.783189289e-13)
(0.2836869273 3.722806183e-05 -2.630481112e-12)
(0.0003574237567 7.679848042e-05 1.691423822e-11)
(0.001284866811 0.0002163563083 2.019046981e-11)
(0.0024275702 0.0003375889143 1.98462628e-11)
(0.003795933155 0.000436408891 2.36793041e-11)
(0.005413562337 0.0005145719132 1.96435747e-11)
(0.007320674701 0.0005751838659 1.740790524e-11)
(0.009571534432 0.0006223996201 1.776634492e-11)
(0.01222807673 0.0006604242813 1.843378943e-11)
(0.01535291414 0.0006924665854 1.755018728e-11)
(0.0190048285 0.0007202291714 2.046443596e-11)
(0.02323779104 0.0007440447345 2.127652444e-11)
(0.0281022309 0.0007633829439 2.187531701e-11)
(0.03364669447 0.0007773603142 2.245727478e-11)
(0.03991894236 0.0007850645903 2.346187207e-11)
(0.04696645057 0.000785706262 1.534259854e-11)
(0.05483658785 0.0007786787812 1.763738718e-11)
(0.06357667978 0.0007635850273 2.487867866e-11)
(0.07323405264 0.0007402525306 2.393371897e-11)
(0.0838560917 0.0007087422377 2.390569944e-11)
(0.09549032109 0.0006693509266 2.614334046e-11)
(0.1081845081 0.0006226066172 1.558406545e-11)
(0.1219867948 0.0005692565942 6.081243065e-12)
(0.1369458678 0.0005102492615 5.821844743e-12)
(0.153111237 0.0004467060598 7.348121513e-12)
(0.1705339728 0.0003798639688 4.566527927e-12)
(0.1892697355 0.0003110434519 4.604546416e-12)
(0.2093935459 0.0002421563343 1.451053896e-12)
(0.2310740811 0.0001769401271 -1.276026133e-13)
(0.2549437556 0.0001164774734 -2.506789098e-12)
(0.2839570215 3.77965624e-05 -2.904513027e-12)
(0.0003977129982 8.513431886e-05 1.673278808e-11)
(0.001407732666 0.0002395813568 2.667663831e-11)
(0.002634197458 0.0003730361006 2.149882414e-11)
(0.004086922153 0.0004818319421 1.86120033e-11)
(0.005789510198 0.000568189138 1.840456228e-11)
(0.007782520001 0.0006355499286 1.857924204e-11)
(0.01012052379 0.0006883087113 1.894443343e-11)
(0.01286547835 0.0007308201478 1.958277683e-11)
(0.01607964391 0.00076637471 1.490376897e-11)
(0.01982107825 0.0007967196632 1.55679937e-11)
(0.02414269056 0.0008222134418 2.261983222e-11)
(0.02909356948 0.0008423383641 2.318009505e-11)
(0.03472072416 0.0008562151934 2.345777017e-11)
(0.04107025704 0.0008629351319 2.555042197e-11)
(0.04818791705 0.0008617186598 2.408599253e-11)
(0.05611930679 0.0008519803908 2.369996803e-11)
(0.06490996275 0.0008333582183 2.664730832e-11)
(0.07460541125 0.0008057301508 2.568866263e-11)
(0.08525123564 0.0007692246119 2.57248398e-11)
(0.09689316469 0.0007242243672 2.819756495e-11)
(0.1095771848 0.0006713635857 2.547507419e-11)
(0.1233496785 0.0006115177425 2.548243041e-11)
(0.1382576032 0.0005457875038 2.75194623e-11)
(0.1543487804 0.0004754728123 2.712411265e-11)
(0.1716726683 0.0004020185308 1.611670069e-11)
(0.1902835318 0.0003269851667 2.866308554e-12)
(0.2102557398 0.0002525350577 2.943941896e-12)
(0.2317597068 0.0001825861991 -1.458720986e-11)
(0.2554345909 0.0001184387484 -1.724693245e-11)
(0.2842300345 3.834161289e-05 -3.176381107e-12)
(0.0004405218234 9.399492287e-05 2.205606987e-11)
(0.001537482064 0.0002641844809 2.111441388e-11)
(0.002851394124 0.0004104964532 2.029099385e-11)
(0.004391555382 0.0005297298843 2.270556475e-11)
(0.006181691458 0.0006246129537 2.755422495e-11)
(0.008262833343 0.0006989608503 2.794651635e-11)
(0.01068995549 0.0007574351302 2.888390267e-11)
(0.01352507552 0.0008045563271 3.006554315e-11)
(0.01683009464 0.0008437017898 2.77028631e-11)
(0.02066232094 0.0008766611941 2.035046253e-11)
(0.02507358065 0.0009038148565 2.377863191e-11)
(0.03011161582 0.0009246562763 2.45361514e-11)
(0.03582190305 0.0009383123154 2.483329254e-11)
(0.0422488968 0.0009438818707 2.61886729e-11)
(0.04943663122 0.0009406010823 2.669564779e-11)
(0.05742895555 0.0009279124018 2.410845927e-11)
(0.06626963048 0.000905496131 2.837909839e-11)
(0.07600239487 0.0008732887447 2.863554537e-11)
(0.08667104183 0.0008314946085 1.822077397e-11)
(0.09831951544 0.0007805912736 1.258870306e-11)
(0.1109920295 0.0007213279702 6.130084774e-12)
(0.1247332139 0.0006547171968 -2.709520543e-12)
(0.139588299 0.0005820202302 -3.557837712e-12)
(0.1556034194 0.0005047229297 5.251985418e-12)
(0.1728264253 0.0004244835585 1.718971897e-11)
(0.1913102073 0.0003431047134 2.520783191e-11)
(0.2111285607 0.00026299576 2.814021329e-11)
(0.2324538074 0.0001882505665 1.102336052e-11)
(0.255931868 0.0001203939649 -4.615278054e-12)
(0.2845059802 3.886884887e-05 -3.445839385e-12)
(0.0004859679122 0.0001034054118 2.181461738e-11)
(0.001674402563 0.0002902260905 3.10383767e-11)
(0.003079573242 0.0004500554482 3.011139507e-11)
(0.004710343188 0.0005802067682 2.427043887e-11)
(0.006590693796 0.000683961091 2.122123015e-11)
(0.00876226278 0.0007655430564 2.125321276e-11)
(0.0112805229 0.000829908568 2.176528731e-11)
(0.01420759577 0.0008817606931 2.247035824e-11)
(0.01760502251 0.0009245702518 2.955132162e-11)
(0.02152933958 0.0009601691234 2.829490052e-11)
(0.02603127113 0.0009889573247 2.498033325e-11)
(0.03115720492 0.001010438981 2.586509513e-11)
(0.03695108783 0.001023749201 2.617607437e-11)
(0.0434557347 0.00102799887 2.666763918e-11)
(0.05071347564 0.001022445455 2.941755318e-11)
(0.05876641823 0.001006565813 1.855796062e-11)
(0.06765655898 0.0009800898428 1.15388288e-11)
(0.07742586149 0.0009430203029 1.223760848e-11)
(0.08811633967 0.0008956456547 1.895432336e-11)
(0.09977016229 0.0008385466291 3.104913881e-11)
(0.1124297794 0.0007725959614 2.806629247e-11)
(0.1261380738 0.0006989513216 2.942964098e-11)
(0.1409385541 0.0006190420761 1.76326279e-11)
(0.1568756703 0.0005345465303 1.537875497e-12)
(0.1739956729 0.0004473410611 5.307251584e-12)
(0.1923501078 0.0003594717416 3.856515965e-12)
(0.2120122823 0.0002735916377 2.285867711e-12)
(0.2331565972 0.0001939676074 1.411187416e-11)
(0.2564357215 0.0001223593715 1.075553858e-11)
(0.2847848875 3.938282011e-05 -6.12168436e-12)
(0.000534173125 0.0001133918378 2.12526506e-11)
(0.001818791948 0.0003177689962 3.039809332e-11)
(0.003319162504 0.0004918016548 2.3428327e-11)
(0.005043813933 0.0006333698289 2.263231175e-11)
(0.007017126533 0.0007463543616 2.570616614e-11)
(0.00928148256 0.0008354262759 3.183086053e-11)
(0.01189295078 0.0009058628055 2.914937539e-11)
(0.01491380296 0.0009625664622 2.349805646e-11)
(0.0184052232 0.001009109231 2.452350527e-11)
(0.02242295864 0.001047366595 2.526398906e-11)
(0.02701661292 0.001077757482 2.624002623e-11)
(0.03223121166 0.001099797012 2.706349044e-11)
(0.03810917306 0.001112631094 2.748366051e-11)
(0.04469167924 0.001115387034 2.811674476e-11)
(0.05201936569 0.001107349298 3.105162365e-11)
(0.06013260863 0.001088035666 2.180658231e-11)
(0.06907165197 0.001057232802 1.776786528e-11)
(0.07887669383 0.001015017377 3.109042097e-11)
(0.08958798004 0.0009617698458 2.839320511e-11)
(0.101245914 0.0008981821066 3.142959836e-11)
(0.1138911898 0.0008252583303 2.010081932e-11)
(0.1275649502 0.0007443089905 1.040728323e-11)
(0.1423089867 0.0006569385313 1.675396667e-11)
(0.1581660711 0.0005650234195 2.732005789e-11)
(0.1751808659 0.0004706620847 1.668168865e-11)
(0.1934036076 0.0003761451632 3.627430809e-12)
(0.2129072096 0.0002843664902 3.653548638e-14)
(0.2338683198 0.0001997648247 -1.791001345e-12)
(0.2569463114 0.0001243474764 6.953824805e-13)
(0.2850667969 3.988671042e-05 -9.052966347e-12)
(0.0005852635718 0.0001239811693 2.764233791e-11)
(0.001970958726 0.0003468784023 3.259171908e-11)
(0.003570605191 0.0005358268379 3.456087818e-11)
(0.005392515642 0.0006893297856 3.010837982e-11)
(0.007461622723 0.0008119171732 2.098303199e-11)
(0.009821194907 0.0009087440571 2.39601453e-11)
(0.01252799663 0.0009854360214 3.089647898e-11)
(0.01564449803 0.001047112126 3.160252088e-11)
(0.01923153313 0.001097454065 2.562365856e-11)
(0.02334404471 0.001138383654 2.646432064e-11)
(0.02803049979 0.001170339208 3.274921493e-11)
(0.03333455274 0.001192848014 3.710172244e-11)
(0.03929709366 0.00120506979 2.966305607e-11)
(0.0459576772 0.001206152936 2.833132872e-11)
(0.05335525237 0.001195414674 2.42459474e-11)
(0.06152847392 0.001172420245 2.254079753e-11)
(0.07051584249 0.001137020187 2.637175363e-11)
(0.08035580213 0.001089372529 3.275262344e-11)
(0.0910868397 0.001029957433 2.084860242e-11)
(0.1027476028 0.00095958576 9.916192861e-12)
(0.1153770382 0.0008794006644 2.256038416e-11)
(0.1290145557 0.0007908724715 3.207967671e-11)
(0.1437002368 0.0006957870592 6.214112946e-12)
(0.1594751828 0.0005962242864 -8.043589716e-12)
(0.1763824846 0.000494508286 1.754389391e-11)
(0.1944711093 0.0003931751207 1.574604098e-11)
(0.2138136774 0.000295356984 -2.417653093e-12)
(0.2345892485 0.0002056649141 -2.136548655e-12)
(0.2574638184 0.0001263683675 -1.931319088e-12)
(0.2853517589 4.03829951e-05 -6.902789726e-12)
(0.0006393696456 0.0001352012981 2.701565372e-11)
(0.0021312225 0.000377621939 3.844809603e-11)
(0.0038343614 0.0005822261736 3.336788412e-11)
(0.005757017997 0.0007482012696 3.204209658e-11)
(0.007924841076 0.0008807779956 3.228155165e-11)
(0.01038213207 0.0009856341279 3.186778181e-11)
(0.01318645229 0.001068770903 2.562822541e-11)
(0.01640052065 0.001135541284 3.343369942e-11)
(0.02008483047 0.001189745869 3.435120745e-11)
(0.02429350856 0.001233356583 2.75395641e-11)
(0.02907386975 0.001266832753 2.025988329e-11)
(0.03446818902 0.001289715779 2.339747534e-11)
(0.04051582729 0.001301182686 3.142972965e-11)
(0.04725471624 0.001300407855 3.0922634e-11)