# vtk DataFile Version 2.0
track0
ASCII
DATASET POLYDATA
POINTS 12318 float
-0.0205 0.001 1e-05
-0.02052 0.000999216 1e-05
-0.02054 0.000998592 1e-05
-0.02056 0.000998126 1e-05
-0.02058 0.000997818 1e-05
-0.0206 0.000997665 1e-05
-0.0205 0.00367778 1e-05
-0.02052 0.00367703 1e-05
-0.02054 0.00367643 1e-05
-0.02056 0.00367598 1e-05
-0.02058 0.00367568 1e-05
-0.0206 0.00367553 1e-05
-0.0205 0.00635556 1e-05
-0.02052 0.00635527 1e-05
-0.02054 0.00635504 1e-05
-0.02056 0.00635487 1e-05
-0.02058 0.00635476 1e-05
-0.0206 0.0063547 1e-05
-0.0205 0.00903333 1e-05
-0.02052 0.00903311 1e-05
-0.02054 0.00903292 1e-05
-0.02056 0.00903279 1e-05
-0.02058 0.0090327 1e-05
-0.0206 0.00903265 1e-05
-0.0205 0.0117111 1e-05
-0.02052 0.0117111 1e-05
-0.02054 0.011711 1e-05
-0.02056 0.011711 1e-05
-0.02058 0.011711 1e-05
-0.0206 0.011711 1e-05
-0.0205 0.0143889 1e-05
-0.02052 0.014389 1e-05
-0.02054 0.014389 1e-05
-0.02056 0.0143891 1e-05
-0.02058 0.0143891 1e-05
-0.0206 0.0143891 1e-05
-0.0205 0.0170667 1e-05
-0.02052 0.017067 1e-05
-0.02054 0.0170672 1e-05
-0.02056 0.0170674 1e-05
-0.02058 0.0170675 1e-05
-0.0206 0.0170676 1e-05
-0.0205 0.0197444 1e-05
-0.02052 0.019745 1e-05
-0.02054 0.0197454 1e-05
-0.02056 0.0197457 1e-05
-0.02058 0.0197459 1e-05
-0.0206 0.019746 1e-05
-0.0205 0.0224222 1e-05
-0.02052 0.022423 1e-05
-0.02054 0.0224236 1e-05
-0.02056 0.0224241 1e-05
-0.02058 0.0224244 1e-05
-0.0206 0.0224245 1e-05
-0.0205 0.0251 1e-05
-0.02052 0.0251003 1e-05
-0.02054 0.0251005 1e-05
-0.02056 0.0251007 1e-05
-0.02058 0.0251008 1e-05
-0.0206 0.0251008 1e-05
-0.0205 0.001 1e-05
-0.0203632 0.00100536 1e-05
-0.0202266 0.00101332 1e-05
-0.0200901 0.00102296 1e-05
-0.0200427 0.00102682 1e-05
-0.0198376 0.00104418 1e-05
-0.0196338 0.00107324 1e-05
-0.0194328 0.00111736 1e-05
-0.0192368 0.00118027 1e-05
-0.0190172 0.00124957 1e-05
-0.0189003 0.00128353 1e-05
-0.0187829 0.00131602 1e-05
-0.0186652 0.00134704 1e-05
-0.0185473 0.00137705 1e-05
-0.0183815 0.00141936 1e-05
-0.0182047 0.00146469 1e-05
-0.0180272 0.00150715 1e-05
-0.017849 0.00154674 1e-05
-0.0176705 0.00158437 1e-05
-0.0174976 0.00162053 1e-05
-0.017286 0.00166444 1e-05
-0.0170743 0.00170782 1e-05
-0.0168626 0.00175065 1e-05
-0.0166506 0.00179255 1e-05
-0.0164041 0.00184007 1e-05
-0.016331 0.00185373 1e-05
-0.0162579 0.00186727 1e-05
-0.0161848 0.00188068 1e-05
-0.0161116 0.00189397 1e-05
-0.0160387 0.00190704 1e-05
-0.0157586 0.00195649 1e-05
-0.0154779 0.00200292 1e-05
-0.0151968 0.0020465 1e-05
-0.0149154 0.00208782 1e-05
-0.0146381 0.00212713 1e-05
-0.0143981 0.0021599 1e-05
-0.014158 0.00219134 1e-05
-0.0139177 0.00222151 1e-05
-0.0136772 0.00225044 1e-05
-0.0133243 0.00229098 1e-05
-0.0133181 0.00229164 1e-05
-0.013312 0.00229229 1e-05
-0.0133058 0.00229295 1e-05
-0.0132996 0.00229361 1e-05
-0.0132934 0.00229426 1e-05
-0.0130353 0.00232158 1e-05
-0.0127769 0.00234754 1e-05
-0.0125185 0.00237214 1e-05
-0.0122599 0.00239536 1e-05
-0.0120025 0.00241707 1e-05
-0.0117547 0.0024368 1e-05
-0.0115067 0.00245524 1e-05
-0.0112586 0.00247248 1e-05
-0.0110105 0.00248875 1e-05
-0.0107632 0.00250404 1e-05
-0.0105252 0.00251787 1e-05
-0.0102872 0.00253073 1e-05
-0.0100491 0.00254261 1e-05
-0.00981102 0.00255361 1e-05
-0.00957337 0.00256388 1e-05
-0.00934491 0.00257305 1e-05
-0.00911642 0.00258148 1e-05
-0.00888791 0.00258916 1e-05
-0.00865937 0.00259604 1e-05
-0.00843108 0.00260229 1e-05
-0.00821175 0.00260771 1e-05
-0.00799241 0.00261252 1e-05
-0.00777305 0.0026167 1e-05
-0.00755368 0.00262018 1e-05
-0.00733443 0.00262305 1e-05
-0.00712387 0.00262525 1e-05
-0.00691329 0.00262691 1e-05
-0.00670272 0.00262797 1e-05
-0.00649214 0.00262836 1e-05
-0.0062816 0.00262811 1e-05
-0.00607944 0.0026273 1e-05
-0.00587729 0.00262594 1e-05
-0.00567515 0.00262395 1e-05
-0.00547301 0.00262123 1e-05
-0.00527083 0.0026178 1e-05
-0.00507675 0.00261383 1e-05
-0.00488269 0.00260924 1e-05
-0.00468864 0.00260395 1e-05
-0.00449462 0.00259779 1e-05
-0.00430044 0.00259072 1e-05
-0.00411412 0.00258308 1e-05
-0.00392783 0.00257465 1e-05
-0.00374158 0.00256543 1e-05
-0.00355539 0.0025551 1e-05
-0.00336883 0.00254353 1e-05
-0.00318995 0.00253126 1e-05
-0.00301115 0.00251791 1e-05
-0.00283243 0.00250347 1e-05
-0.00265383 0.00248771 1e-05
-0.00247443 0.00247017 1e-05
-0.0023027 0.00245176 1e-05
-0.00213114 0.00243178 1e-05
-0.0019598 0.00241009 1e-05
-0.0017887 0.00238647 1e-05
-0.00161577 0.00236064 1e-05
-0.00153035 0.00234671 1e-05
-0.00144503 0.00233218 1e-05
-0.00135984 0.00231691 1e-05
-0.00127479 0.00230089 1e-05
-0.00122457 0.00229098 1e-05
-0.00113794 0.00227341 1e-05
-0.00105145 0.0022552 1e-05
-0.000965086 0.00223635 1e-05
-0.000878866 0.00221686 1e-05
-0.000791418 0.00219634 1e-05
-0.000633135 0.00215755 1e-05
-0.000475606 0.00211581 1e-05
-0.000318879 0.00207114 1e-05
-0.00016312 0.00202321 1e-05
0 0.00196855 1e-05
6.71045e-05 0.00194409 1e-05
0.000133847 0.00191866 1e-05
0.000200223 0.00189229 1e-05
0.000266233 0.00186502 1e-05
0.000310978 0.00184581 1e-05
0.00035446 0.00182666 1e-05
0.000397748 0.00180708 1e-05
0.000440839 0.00178707 1e-05
0.000483728 0.00176663 1e-05
0.000528387 0.00174483 1e-05
0.000634886 0.00169153 1e-05
0.000740101 0.00163574 1e-05
0.000843963 0.00157747 1e-05
0.000946464 0.00151683 1e-05
0.00106088 0.00144558 1e-05
0.00106393 0.00144357 1e-05
0.00106697 0.00144156 1e-05
0.00107002 0.00143954 1e-05
0.00107306 0.00143753 1e-05
0.00107607 0.00143553 1e-05
0.00118036 0.00136625 1e-05
0.00128288 0.00129437 1e-05
0.00138352 0.00121989 1e-05
0.0014823 0.00114296 1e-05
0.00159752 0.00104895 1e-05
0.00159839 0.00104819 1e-05
0.00159927 0.00104744 1e-05
0.00160015 0.00104668 1e-05
0.00160102 0.00104592 1e-05
0.0016019 0.00104517 1e-05
0.00168718 0.000971393 1e-05
0.00177088 0.000895814 1e-05
0.00185289 0.000818423 1e-05
0.00193325 0.000739302 1e-05
0.00199522 0.000676035 1e-05
0.00202384 0.000645948 1e-05
0.00205221 0.000615625 1e-05
0.00208033 0.000585071 1e-05
0.00210826 0.000554339 1e-05
0.00213833 0.000520825 1e-05
0.00217245 0.000482244 1e-05
0.00220622 0.00044336 1e-05
0.00223964 0.000404172 1e-05
0.0022727 0.000364679 1e-05
0.00230302 0.000327897 1e-05
0.00235634 0.000262317 1e-05
0.00240874 0.000196004 1e-05
0.00246019 0.00012895 1e-05
0.00251078 6.12458e-05 1e-05
0.00255541 0 1e-05
0.00258099 -3.59443e-05 1e-05
0.00260636 -7.20451e-05 1e-05
0.00263151 -0.000108293 1e-05
0.00265647 -0.000144673 1e-05
0.00268334 -0.000184273 1e-05
0.00270796 -0.000221038 1e-05
0.00273237 -0.000257945 1e-05
0.00275657 -0.000294997 1e-05
0.00278054 -0.000332192 1e-05
0.00280338 -0.000368088 1e-05
0.00285505 -0.000450206 1e-05
0.00290582 -0.000532884 1e-05
0.00295565 -0.000616126 1e-05
0.0030046 -0.000699889 1e-05
0.00304958 -0.000778609 1e-05
0.00308619 -0.000844086 1e-05
0.00312231 -0.000909824 1e-05
0.00315799 -0.000975808 1e-05
0.00319326 -0.00104201 1e-05
0.00323259 -0.00111699 1e-05
0.00324487 -0.00114082 1e-05
0.00325708 -0.00116468 1e-05
0.00326924 -0.00118858 1e-05
0.00328133 -0.0012125 1e-05
0.00329319 -0.00123614 1e-05
0.00334409 -0.00133809 1e-05
0.00339406 -0.0014405 1e-05
0.00344316 -0.00154333 1e-05
0.00349136 -0.00164659 1e-05
0.00353677 -0.00174579 1e-05
0.00358664 -0.00185684 1e-05
0.00363564 -0.00196828 1e-05
0.00368383 -0.00208007 1e-05
0.0037313 -0.00219217 1e-05
0.00378164 -0.0023133 1e-05
0.00378254 -0.00231549 1e-05
0.00378343 -0.00231768 1e-05
0.00378432 -0.00231988 1e-05
0.00378521 -0.00232207 1e-05
0.00378611 -0.00232427 1e-05
0.00383659 -0.00244845 1e-05
0.00388635 -0.00257292 1e-05
0.00393536 -0.00269769 1e-05
0.0039836 -0.00282275 1e-05
0.00403002 -0.00294505 1e-05
0.00408266 -0.0030857 1e-05
0.00413453 -0.00322664 1e-05
0.00418561 -0.00336786 1e-05
0.00423613 -0.00350928 1e-05
0.00428511 -0.00364818 1e-05
0.00429687 -0.00368185 1e-05
0.00430861 -0.00371553 1e-05
0.00432032 -0.00374922 1e-05
0.00433202 -0.00378291 1e-05
0.00434393 -0.00381724 1e-05
0.00438642 -0.00393994 1e-05
0.0044286 -0.00406275 1e-05
0.00447046 -0.00418567 1e-05
0.00451198 -0.0043087 1e-05
0.0045529 -0.00443068 1e-05
0.00461108 -0.00460485 1e-05
0.00466883 -0.00477916 1e-05
0.00472615 -0.00495361 1e-05
0.00478333 -0.00512811 1e-05
0.00484006 -0.00530147 1e-05
0.00485327 -0.00534175 1e-05
0.00486647 -0.00538204 1e-05
0.00487967 -0.00542233 1e-05
0.00489289 -0.00546262 1e-05
0.00490609 -0.00550282 1e-05
0.00495657 -0.00565635 1e-05
0.00500708 -0.00580986 1e-05
0.00505761 -0.00596337 1e-05
0.00510819 -0.00611687 1e-05
0.00515905 -0.00627047 1e-05
0.00522176 -0.00645868 1e-05
0.00528477 -0.0066468 1e-05
0.00534809 -0.00683481 1e-05
0.00541204 -0.00702261 1e-05
0.00547262 -0.0071985 1e-05
0.00548308 -0.00722854 1e-05
0.00549355 -0.00725858 1e-05
0.00550404 -0.00728861 1e-05
0.00551453 -0.00731864 1e-05
0.00552506 -0.0073487 1e-05
0.00560927 -0.00758859 1e-05
0.00569457 -0.00782809 1e-05
0.00578102 -0.00806717 1e-05
0.00586894 -0.00830572 1e-05
0.00596043 -0.00854833 1e-05
0.00597705 -0.00859137 1e-05
0.00599373 -0.00863439 1e-05
0.00601047 -0.00867739 1e-05
0.00602727 -0.00872037 1e-05
0.00604356 -0.00876184 1e-05
0.00611578 -0.00894497 1e-05
0.00618914 -0.00912764 1e-05
0.00626365 -0.00930984 1e-05
0.00633938 -0.00949154 1e-05
0.00641867 -0.00967763 1e-05
0.00645872 -0.00976951 1e-05
0.00649912 -0.00986125 1e-05
0.00653988 -0.00995282 1e-05
0.00658101 -0.0100442 1e-05
0.00661893 -0.0101275 1e-05
0.00668145 -0.0102634 1e-05
0.00674484 -0.0103988 1e-05
0.00680913 -0.0105338 1e-05
0.00687437 -0.0106684 1e-05
0.00694281 -0.0108069 1e-05
0.006994 -0.0109085 1e-05
0.00704575 -0.0110097 1e-05
0.00709808 -0.0111107 1e-05
0.00715098 -0.0112114 1e-05
0.00719878 -0.0113011 1e-05
0.00726738 -0.011428 1e-05
0.007337 -0.0115545 1e-05
0.00740763 -0.0116804 1e-05
0.00747932 -0.0118056 1e-05
0.00755552 -0.0119361 1e-05
0.00760104 -0.0120125 1e-05
0.00764697 -0.0120886 1e-05
0.00769329 -0.0121644 1e-05
0.00774002 -0.01224 1e-05
0.00778313 -0.0123089 1e-05
0.00787884 -0.0124602 1e-05
0.0079763 -0.0126103 1e-05
0.00807553 -0.0127593 1e-05
0.00817656 -0.0129071 1e-05
0.00828778 -0.0130655 1e-05
0.00830463 -0.0130888 1e-05
[...]
POINT_DATA 12318
 FIELD attributes 2
p 1 12318 float
191929 192009 192080 192141 192193 192236
123842 123860 123876 123891 123903 123913
102680 102689 102698 102707 102716 102725
94831.9 94838.1 94844.3 94850.4 94856.4 94862.3
91985.8 91995 92004.2 92013.4 92022.6 92031.8
92350.9 92364.6 92378.3 92392 92405.7 92419.4
95855.7 95868.2 95880.5 95892.7 95904.6 95916.5
105689 105708 105727 105746 105763 105780
132141 132174 132204 132232 132258 132282
230252 230062 229870 229675 229479 229280
191929 188322 183990 179407 177740 173802 170412 167752 159580 149534 144091 138662 134719 134102 133242 127195 121292 117173 116260 115376 114382 113389 111982 110533 108855 108474 108093 107712 107221 106715 104819 103012 101523 100705 99898.4 99225.1 98585.8 97973.8 97359.8 96456.2 96439.3 96422.4 96405.5 96388.9 96373.8 95809.8 95248.7 94688 94134.2 93674.5 93238.1 92813.4 92409.5 92039.5 91674.4 91325.2 90975.6 90648.7 90345.4 90042.5 89751.2 89459.8 89178.5 88914 88651.4 88397.8 88145.5 87895.9 87655.2 87420.3 87192.7 86964.8 86736.4 86514.2 86297.9 86087.4 85874.4 85658.6 85448.6 85242.8 85041.1 84836.2 84624.3 84418.2 84214 84010.7 83807.9 83590.4 83374.5 83159.1 82939.2 82720.2 82489.3 82238.5 81988 81725.3 81449.6 81157.3 80866.7 80549.7 80374.5 80168.6 79960.4 79752.7 79630.4 79446.3 79263.9 79083.1 78887.1 78663.2 78195.9 77732.3 77168.3 76398.1 75590.2 75144.3 74718.4 74316.2 73916.4 73645.5 73292.6 72939 72584.8 72298 72011.2 71406.1 70799.2 70240.2 69697.9 69091.9 69077.4 69062.8 69049.3 69036.3 69023.3 68468.3 67906.4 67375 66891.6 66311.9 66307.7 66303.4 66299.4 66296 66292.6 65866.9 65434.6 65021.9 64684.9 64416.7 64253.9 64095.3 63979.1 63862.2 63734.7 63587.9 63439.8 63290.6 63172 63068.2 62870.1 62669 62488.5 62296.1 62120.7 62049.8 61981.3 61917 61852.2 61781.1 61713.8 61645.8 61577.2 61507.7 61440.2 61356.1 61269.9 61159.2 61040.5 60927.4 60887.7 60843.2 60792.3 60740.4 60680.8 60659.3 60637.7 60615.9 60592.8 60568.7 60519.6 60462.6 60403.8 60334.1 60265.4 60235.3 60199.4 60156.5 60112.4 60063.5 60063.3 60063 60062.6 60062.2 60061.7 60028.1 59993.7 59958.3 59918.3 59875.6 59853.9 59830.9 59801.5 59771.5 59744.2 59741.9 59739.3 59735.8 59732.3 59728.8 59709.9 59690.7 59671.2 59650.1 59628 59611.7 59595 59575.9 59557.1 59541.2 59539.7 59538.2 59536.3 59534.5 59532.6 59519.9 59507.3 59494.6 59481.8 59469.1 59460.9 59452.9 59445.2 59437.8 59431.2 59429.1 59426.9 59424.8 59422.9 59421 59412.3 59404.5 59400.2 59399.1 59398.7 59399.1 59399.6 59400.7 59402 59403.3 59401.9 59400.8 59400.8 59404.5 59408.7 59411.9 59415.3 59419.7 59424.6 59429.1 59432.1 59435.2 59439.4 59445.4 59451.7 59457.5 59463.4 59470.2 59477.8 59484.6 59490.4 59496.3 59503.5 59511.8 59520.7 59526.7 59532.8 59539.3 59546.6 59553.3 59563.2 59573.3 59585.5 59598.5 59612.9 59615.3 59617.6 59620 59622.7 59625.4 59638.8 59652.6 59668.3 59685.8 59700.4 59704.5 59708.6 59713.5 59718.6 59723.8 59732.9 59742.1 59751.3 59761.8 59771.5 59783 59794.6 59808.3 59822.6 59835.7 59838.1 59840.8 59843.9 59846.9 59850.1 59859 59867.9 59876.9 59886.6 59896.3 59905.5 59914.7 59925.4 59937.6 59948.7 59953.8 59959.8 59966.2 59972.6 59979.9 59982.4 59984.8 59987.2 59989.8 59992.7 59999.6 60007.2 60014.8 60023.4 60032 60036.7 60041.3 60047.2 60054.4 60061.2 60064 60068 60072.3 60076.4 60080.6 60080.8 60081.1 60081.5 60081.9 60082.2 60084.6 60086.8 60089.1 60091.2 60094.5 60094.3 60094.9 60095.6 60097.2 60099.2 60097.2 60095 60094 60094.1 60094.2 60090.2 60086.6 60083.8 60081.3 60079.5 60073.8 60069.2 60064.5 60059.8 60055.4 60052.5 60050 60047.4 60044.8 60042 60038.2 60034.5 60030.7 60026.9 60023.5 60015 60007 59998.9 59990.7 59983.4 59972.7 59962.6 59952.7 59943.2 59934.1 59921.7 59909.2 59897.6 59886.7 59875.8 59861.8 59847.6 59834.2 59821.5 59808.9 59793.2 59777.4 59762.2 59747.8 59733.4 59716.2 59699.1 59682.3 59665.8 59649.8 59631.1 59612.7 59594.3 59575.9 59558.3 59538.2 59518.4 59498.5 59478.6 59459.2 59437.8 59416.5 59395.2 59373.8 59352.7 59337.3 59322 59306.6 59291.3 59273.9 59267 59260.1 59253.1 59246.2 59239.2 59215.2 59191.3 59167.3 59143.3 59119.3 59093.9 59068.6 59043.3 59018 58992.8 58965.9 58939.4 58912.9 58886.3 58859.8 58831.6 58803.9 58776.2 58748.4 58720.6 58691.3 58662.4 58633.5 58604.6 58575.6 58545.3 58515.2 58485.2 58455.1 58425 58393.6 58362.4 58331.3 58300.2 58268.9 58236.6 58204.3 58172.3 58140 58107.8 58074.5 58041.2 58008.2 57974.9 57941.7 57907.5 57873.3 57839.3 57805.1 57770.9 57735.8 57700.8 57665.8 57630.7 57595.6 57559.8 57523.9 57488 57452 57416 57379.4 57342.7 57306 57269.2 57232.3 57195 57157.6 57120 57082.4 57044.8 57006.6 56968.5 56930.2 56891.8 56853.4 56814.7 56775.9 56736.8 56697.7 56658.6 56619.1 56579.7 56539.9 56500.1 56460.3 56420.3 56380.2 56339.7 56299.3 56258.8 56218.1 56177.5 56136.4 56095.3 56054.2 56013 55971.7 55930.1 55888.4 55846.7 55804.9 55763.1 55720.9 55678.6 55636.4 55594.1 55551.7 55509 55466.2 55423.4 55380.6 55337.7 55294.5 55251.2 55207.9 55164.6 55121.2 55077.5 55033.7 54990 54946.2 54902.3 54858.2 54814 54769.7 54725.5 54681.2 54636.6 54592 54547.3 54502.7 54457.9 54412.9 54367.8 54322.7 54277.7 54232.6 54187.2 54141.7 54096.2 54050.8 54005.3 53959.5 53913.6 53867.7 53822 53776.1 53730 53683.8 53637.5 53591.4 53545.2 53498.7 53452.1 53405.5 53359.1 53312.5 53265.8 53218.9 53171.9 53125.2 53078.3 53031.2 52984 52936.8 52889.8 52842.6 52795.2 52747.7 52700.1 52652.8 52605.3 52557.7 52509.9 52462.1 52414.5 52366.7 52318.8 52270.8 52222.6 52174.8 52126.8 52078.6 52030.3 51981.9 51933.9 51885.6 51837.2 51788.6 51740 51691.7 51643.2 51594.5 51545.8 51496.9 51448.4 51399.7 51350.8 51301.8 51252.7 51203.9 51155 51105.9 51056.7 51007.4 50958.5 50909.4 50860.1 50810.6 50761.2 50712 50662.7 50613.2 50563.6 50513.9 50464.6 50415.1 50365.4 50315.6 50265.8 50216.2 50166.6 50116.7 50066.8 50016.7 49967 49917.2 49867.2 49817.1 49766.9 49717 49667 49616.9 49566.6 49516.3 49466.2 49416.1 49365.8 49315.3 49264.8 49214.5 49164.3 49113.8 49063.2 49012.6 48962.2 48911.8 48861.2 48810.5 48759.8 48709.3 48658.9 48608.1 48557.3 48506.4 48455.8 48405.2 48354.4 48303.3 48252.3 48201.6 48150.8 48099.8 48048.7 47997.6 47946.7 47895.8 47844.8 47793.5 47742.3 47691.3 47640.3 47589.1 47537.8 47486.5 47435.4 47384.3 47333 47281.6 47230.1 47178.9 47127.7 47076.4 47024.8 46973.3 46922 46870.7 46819.3 46767.6 46715.9 46664.6 46613.2 46561.6 46509.9 46458.2 46406.7 46355.3 46303.6 46251.8 46200 46148.4 46096.8 46045.1 45993.2 45941.4 45889.8 45838.2 45786.4 45734.4 45682.4 45630.6 45578.8 45527 45475 45423 45371.2 45319.4 45267.5 45215.3 45163.1 45111.2 45059.2 45007.2 44955 44902.9 44851 44799.1 44747 44694.6 44642.3 44590.2 44538.1 44485.9 44433.7 44381.4 44329.3 44277.3 44225 44172.6 44120.1 44067.9 44015.6 43963.3 43910.9 43858.5 43806.3 43754.1 43701.7 43649.2 43596.6 43544.2 43491.8 43439.3 43386.8 43334.3 43282 43229.6 43177.1 43124.4 43071.7 43019.2 42966.6 42914 42861.4 42808.8 42756.3 42703.8 42651.1 42598.3 42545.5 42492.8 42440.2 42387.4 42334.7 42281.9 42229.3 42176.6 42123.8 42070.9 42018 41965.2 41912.4 41859.5 41806.6 41753.7 41700.9 41648.1 41595.2 41542.2 41489.2 41436.2 41383.3 41330.3 41277.3 41224.3 41171.4 41118.4 41065.4 41012.3 40959.2 40906.1 40853 40799.9 40746.8 40693.7 40640.6 40587.5 40534.3 40481.1 40427.8 40374.5 40321.3 40268 40214.8 40161.5 40108.3 40055.1 40001.7 39948.4 39894.9 39841.6 39788.2 39734.8 39681.4 39628 39574.7 39521.2 39467.8 39414.3 39360.7 39307.2 39253.7 39200.1 39146.6 39093.1 39039.6 38986 38932.4 38878.8 38825.1 38771.4 38717.7 38664 38610.4 38556.7 38503 38449.3 38395.5 38341.8 38287.9 38234.1 38180.3 38126.4 38072.6 38018.8 37964.9 37911 37857.1 37803.2 37749.2 37695.2 37641.2 37587.2 37533.2 37479.2 37425.2 37371.1 37317 37263 37208.8 37154.7 37100.5 37046.3 36992.1 36938 36883.7 36829.5 36775.2 36720.9 36666.7 36612.3 36557.9 36503.6 36449.2 36394.9 36340.4 36286 36231.5 36177.1 36122.6 36068.1 36013.5 35959 35904.4 35849.9 35795.2 35740.6 35685.9 35631.3 35576.6 35521.9 35467.1 35412.4 35357.6 35302.9 35248 35193.2 35138.3 35083.4 35028.6 35011.9 34995.2 34978.5 34961.9 34945.1 34906.9 34868.6 34830.3 34792 34753.7 34698.6 34643.6 34588.5 34533.4 34478.3 34423.1 34367.9 34312.7 34257.5 34202.3 34147 34091.7 34036.3 33981 33925.7 33870.3 33814.8 33759.4 33704 33648.5 33593 33537.4 33481.8 33426.3 33370.7 33315 33259.3 33203.6 33147.9 33092.3 33036.4 32980.6 32924.8 32869 32813.2 32757.2 32701.2 32645.3 32589.3 32533.4 32477.3 32421.2 32365.1 32309 32252.9 32196.6 32140.4 32084.2 32027.9 31971.7 31915.3 31858.9 31802.5 31746.1 31689.8 31633.2 31576.7 31520.1 31463.6 31407.1 31350.4 31293.7 31237 31180.3 31123.6 31066.7 31009.8 30953 30896.1 30839.3 30782.2 30725.2 30668.1 30611.1 30554.1 30496.9 30439.7 30382.4 30325.2 30268.1 30210.6 30153.2 30095.9 30038.5 29981.1 29923.5 29865.9 29808.3 29750.8 29693.2 29635.4 29577.6 29519.9 29462.1 29404.4 29346.4 29288.4 29230.4 29172.5 29114.5 29056.3 28998.1 28939.9 28881.8 28823.6 28765.2 28706.8 28648.4 28590 28531.6 28473 28414.3 28355.7 28297.1 28238.5 28179.7 28120.8 28062 28003.1 27944.3 27885.2 27826.1 27767 27708 27648.9 27589.6 27530.3 27471 27411.7 27352.4 27292.8 27233.3 27173.7 27114.2 27054.7 26995 26935.2 26875.4 26815.7 26756 26696 26636 26576.1 26516.3 26456.4 26396.3 26336.1 26276.1 26216.2 26156.2 26096 26035.8 25975.9 25916 25856.1 25796.1 25736 25676.3 25616.7 25557.1 25497.4 25437.7 25378.4 25319.4 25260.4 25201.5 25142.6 25084.3 25026.2 24968.2 24910.5 24855.1 24802.3 24751.5 24703.6 24656.2 24592.8 24524.3 24455 24368 24287.5 24253.7 24220.2 24187 24179.1 24169.3 24133.9 24098.3 24062.3 23987 23899.1 23827.6 23756.2 23684.8 23633.8 23580.9 23521 23460.6 23399.2 23331.6 23261.5 23190.4 23119 23047.3 22974.7 22899.5 22822.8 22745.5 22667.7 22588.3 22506.3 22423.2 22339.6 22255.6 22170.5 22082.7 21993.1 21902.9 21812 21719.5 21624 21527.4 21430.3 21332.8 21234.4 21132.7 21028.8 20924.1 20818.7 20711.3 20600.3 20487.8 20374.9 20261.6 20147.1 20028.7 19907.6 19785.5 19662.7 19537.3 19407.7 19276 19143.7 19010.8 18876.1 18736.8 18594.1 18450.5 18306.1 18158.7 18006.2 17850.5 17693.9 17536.6 17376.4 17210.7 17040.8 16869.8 16698 16522.4 16340.7 16155 15968.3 15781 15590.1 15392.5 15186.9 14979.5 14770.8 14554.5 14330.6 14107.8 13885.2 13662.9 13442.3 13213.7 12960.1 12701.8 12439.1 12152.2 11854.9 11585.3 11320.9 11061.4 10830.1 10590.2 10271 9936.63 9586.72 9159.81 8717.15 8381.15 8069.78 7784.94 7605.56 7419.4 7027.77 6568.88 6020.34 5279.1 4509.61 3942.29 3546.03 3394.81 3415.83 3435.87 3414.82 2763.68 1381.42 0