# vtk DataFile Version 2.0
track0
ASCII
DATASET POLYDATA
POINTS 12298 float
-0.0205 0.001 1e-05
-0.02052 0.000999216 1e-05
-0.02054 0.000998592 1e-05
-0.02056 0.000998126 1e-05
-0.02058 0.000997818 1e-05
-0.0206 0.000997665 1e-05
-0.0205 0.00367778 1e-05
-0.02052 0.00367703 1e-05
-0.02054 0.00367643 1e-05
-0.02056 0.00367599 1e-05
-0.02058 0.00367569 1e-05
-0.0206 0.00367554 1e-05
-0.0205 0.00635556 1e-05
-0.02052 0.00635527 1e-05
-0.02054 0.00635505 1e-05
-0.02056 0.00635488 1e-05
-0.02058 0.00635476 1e-05
-0.0206 0.00635471 1e-05
-0.0205 0.00903333 1e-05
-0.02052 0.00903311 1e-05
-0.02054 0.00903293 1e-05
-0.02056 0.0090328 1e-05
-0.02058 0.00903271 1e-05
-0.0206 0.00903266 1e-05
-0.0205 0.0117111 1e-05
-0.02052 0.0117111 1e-05
-0.02054 0.011711 1e-05
-0.02056 0.011711 1e-05
-0.02058 0.011711 1e-05
-0.0206 0.011711 1e-05
-0.0205 0.0143889 1e-05
-0.02052 0.014389 1e-05
-0.02054 0.014389 1e-05
-0.02056 0.0143891 1e-05
-0.02058 0.0143891 1e-05
-0.0206 0.0143891 1e-05
-0.0205 0.0170667 1e-05
-0.02052 0.017067 1e-05
-0.02054 0.0170672 1e-05
-0.02056 0.0170674 1e-05
-0.02058 0.0170675 1e-05
-0.0206 0.0170676 1e-05
-0.0205 0.0197444 1e-05
-0.02052 0.019745 1e-05
-0.02054 0.0197454 1e-05
-0.02056 0.0197457 1e-05
-0.02058 0.0197459 1e-05
-0.0206 0.019746 1e-05
-0.0205 0.0224222 1e-05
-0.02052 0.022423 1e-05
-0.02054 0.0224236 1e-05
-0.02056 0.0224241 1e-05
-0.02058 0.0224244 1e-05
-0.0206 0.0224245 1e-05
-0.0205 0.0251 1e-05
-0.02052 0.0251003 1e-05
-0.02054 0.0251005 1e-05
-0.02056 0.0251007 1e-05
-0.02058 0.0251008 1e-05
-0.0206 0.0251008 1e-05
-0.0205 0.001 1e-05
-0.0203632 0.00100536 1e-05
-0.0202266 0.00101331 1e-05
-0.0200901 0.00102296 1e-05
-0.0200427 0.00102682 1e-05
-0.0198376 0.00104418 1e-05
-0.0196338 0.00107322 1e-05
-0.0194327 0.00111734 1e-05
-0.0192367 0.00118023 1e-05
-0.0190172 0.00124951 1e-05
-0.0189002 0.00128348 1e-05
-0.0187827 0.00131598 1e-05
-0.0186649 0.001347 1e-05
-0.0185468 0.001377 1e-05
-0.0183807 0.00141936 1e-05
-0.018204 0.00146457 1e-05
-0.0180267 0.00150691 1e-05
-0.0178487 0.00154639 1e-05
-0.0176703 0.00158388 1e-05
-0.0174976 0.00161989 1e-05
-0.0172846 0.00166392 1e-05
-0.0170715 0.0017074 1e-05
-0.0168582 0.00175028 1e-05
-0.0166448 0.00179218 1e-05
-0.0163944 0.00184007 1e-05
-0.0163232 0.00185323 1e-05
-0.0162521 0.00186627 1e-05
-0.0161809 0.00187919 1e-05
-0.0161097 0.00189198 1e-05
-0.0160387 0.00190456 1e-05
-0.0157586 0.00195346 1e-05
-0.0154779 0.00199927 1e-05
-0.0151968 0.0020422 1e-05
-0.0149154 0.00208278 1e-05
-0.0146381 0.00212129 1e-05
-0.0143837 0.00215523 1e-05
-0.0141292 0.00218763 1e-05
-0.0138744 0.00221853 1e-05
-0.0136195 0.00224796 1e-05
-0.0132934 0.00228364 1e-05
-0.013279 0.00228511 1e-05
-0.0132646 0.00228657 1e-05
-0.0132502 0.00228803 1e-05
-0.0132358 0.00228949 1e-05
-0.0132209 0.00229098 1e-05
-0.0129773 0.00231543 1e-05
-0.0127335 0.00233865 1e-05
-0.0124895 0.00236061 1e-05
-0.0122455 0.00238129 1e-05
-0.0120025 0.00240058 1e-05
-0.0117547 0.00241911 1e-05
-0.0115067 0.00243631 1e-05
-0.0112587 0.00245237 1e-05
-0.0110106 0.00246742 1e-05
-0.0107632 0.00248146 1e-05
-0.0105252 0.00249405 1e-05
-0.0102872 0.00250564 1e-05
-0.0100491 0.00251622 1e-05
-0.00981105 0.00252599 1e-05
-0.00957337 0.002535 1e-05
-0.00934491 0.00254294 1e-05
-0.00911643 0.00255011 1e-05
-0.00888792 0.00255653 1e-05
-0.0086594 0.0025622 1e-05
-0.00843108 0.00256723 1e-05
-0.00821175 0.00257145 1e-05
-0.00799241 0.00257506 1e-05
-0.00777306 0.00257805 1e-05
-0.0075537 0.00258034 1e-05
-0.00733443 0.00258204 1e-05
-0.00712387 0.0025831 1e-05
-0.0069133 0.00258362 1e-05
-0.00670273 0.00258358 1e-05
-0.00649216 0.00258286 1e-05
-0.0062816 0.00258152 1e-05
-0.00607944 0.00257964 1e-05
-0.0058773 0.00257721 1e-05
-0.00567516 0.00257424 1e-05
-0.00547303 0.00257053 1e-05
-0.00527083 0.0025661 1e-05
-0.00507675 0.00256116 1e-05
-0.00488269 0.0025556 1e-05
-0.00468865 0.00254941 1e-05
-0.00449464 0.00254242 1e-05
-0.00430044 0.0025345 1e-05
-0.00411412 0.00252603 1e-05
-0.00392783 0.00251677 1e-05
-0.00374159 0.00250674 1e-05
-0.0035554 0.00249576 1e-05
-0.00336883 0.00248354 1e-05
-0.00318995 0.00247066 1e-05
-0.00301115 0.00245672 1e-05
-0.00283244 0.00244166 1e-05
-0.00265385 0.00242532 1e-05
-0.00247443 0.00240744 1e-05
-0.0023027 0.00238874 1e-05
-0.00213114 0.00236853 1e-05
-0.00195981 0.00234645 1e-05
-0.00178873 0.00232252 1e-05
-0.00161577 0.00229643 1e-05
-0.00160904 0.00229534 1e-05
-0.00160231 0.00229425 1e-05
-0.00159557 0.00229315 1e-05
-0.00158884 0.00229204 1e-05
-0.00158236 0.00229098 1e-05
-0.00142417 0.00226484 1e-05
-0.00126635 0.00223654 1e-05
-0.00110893 0.00220614 1e-05
-0.000951915 0.00217369 1e-05
-0.000791418 0.00213819 1e-05
-0.000633135 0.0021003 1e-05
-0.000475552 0.00205959 1e-05
-0.000318706 0.00201613 1e-05
-0.000162795 0.00196943 1e-05
0 0.00191656 1e-05
4.13186e-05 0.00190203 1e-05
8.25153e-05 0.00188715 1e-05
0.000123591 0.00187194 1e-05
0.000164549 0.00185642 1e-05
0.000197301 0.00184371 1e-05
0.000263519 0.00181755 1e-05
0.000329365 0.00179048 1e-05
0.000394827 0.00176248 1e-05
0.000459893 0.00173358 1e-05
0.000528387 0.00170207 1e-05
0.000634886 0.00165132 1e-05
0.000740282 0.00159832 1e-05
0.000844516 0.00154306 1e-05
0.00094763 0.00148574 1e-05
0.00103488 0.00143491 1e-05
0.00104008 0.00143176 1e-05
0.00104528 0.0014286 1e-05
0.00105047 0.00142543 1e-05
0.00105566 0.00142226 1e-05
0.00106088 0.00141906 1e-05
0.00116821 0.00135313 1e-05
0.00127404 0.00128483 1e-05
0.00137829 0.00121413 1e-05
0.001481 0.00114123 1e-05
0.00159752 0.00105511 1e-05
0.00160006 0.00105314 1e-05
0.0016026 0.00105117 1e-05
0.00160514 0.0010492 1e-05
0.00160768 0.00104723 1e-05
0.0016102 0.00104526 1e-05
0.00170483 0.000971554 1e-05
0.00179803 0.000896047 1e-05
0.00188973 0.000818722 1e-05
0.00198001 0.000739754 1e-05
0.00205017 0.000676461 1e-05
0.0020678 0.000660149 1e-05
0.00208537 0.000643768 1e-05
0.00210287 0.000627316 1e-05
0.00212032 0.000610814 1e-05
0.00213833 0.000593697 1e-05
0.00219382 0.000540626 1e-05
0.00224877 0.000486984 1e-05
0.00230314 0.000432763 1e-05
0.00235692 0.000377955 1e-05
0.00240488 0.000328297 1e-05
0.00246057 0.000269779 1e-05
0.00251566 0.000210693 1e-05
0.00257015 0.000151055 1e-05
0.00262415 9.0972e-05 1e-05
0.00268334 2.39864e-05 1e-05
0.00268749 1.91891e-05 1e-05
0.00269165 1.43886e-05 1e-05
0.0026958 9.58502e-06 1e-05
0.00269994 4.77821e-06 1e-05
0.00270406 0 1e-05
0.0027675 -7.37405e-05 1e-05
0.0028303 -0.000148026 1e-05
0.00289244 -0.000222863 1e-05
0.0029539 -0.000298264 1e-05
0.00301038 -0.000368672 1e-05
0.00305482 -0.000424924 1e-05
0.00309896 -0.000481419 1e-05
0.00314278 -0.000538153 1e-05
0.00318635 -0.000595082 1e-05
0.00323259 -0.000656076 1e-05
0.0032512 -0.000680883 1e-05
0.00326975 -0.000705734 1e-05
0.00328824 -0.000730629 1e-05
0.00330667 -0.00075557 1e-05
0.00332472 -0.000780104 1e-05
0.00339195 -0.000871886 1e-05
0.00345855 -0.000964127 1e-05
0.0035245 -0.00105684 1e-05
0.00358987 -0.00114996 1e-05
0.00365161 -0.00123894 1e-05
0.00367851 -0.00127815 1e-05
0.00370532 -0.00131743 1e-05
0.00373205 -0.00135676 1e-05
0.00375871 -0.00139614 1e-05
0.00378611 -0.00143673 1e-05
0.00382828 -0.00149946 1e-05
0.00387024 -0.00156234 1e-05
0.00391197 -0.00162537 1e-05
0.00395346 -0.00168855 1e-05
0.00399379 -0.00175034 1e-05
0.00406381 -0.00185833 1e-05
0.00413334 -0.00196665 1e-05
0.00420234 -0.0020753 1e-05
0.00427097 -0.00218417 1e-05
0.00434393 -0.00230081 1e-05
0.00434632 -0.00230467 1e-05
0.00434871 -0.00230852 1e-05
0.0043511 -0.00231238 1e-05
0.00435349 -0.00231623 1e-05
0.00435587 -0.00232009 1e-05
0.00443444 -0.002447 1e-05
0.00451253 -0.0025742 1e-05
0.00459016 -0.00270169 1e-05
0.00466733 -0.00282945 1e-05
0.00474255 -0.00295457 1e-05
0.00477526 -0.00300924 1e-05
0.00480791 -0.00306394 1e-05
0.00484051 -0.00311867 1e-05
0.00487309 -0.00317342 1e-05
0.00490609 -0.00322892 1e-05
0.00495743 -0.00331533 1e-05
0.00500863 -0.00340182 1e-05
0.00505968 -0.00348841 1e-05
0.00511058 -0.00357507 1e-05
0.00516094 -0.00366093 1e-05
0.00522327 -0.00376739 1e-05
0.0052855 -0.0038739 1e-05
0.00534762 -0.00398049 1e-05
0.00540973 -0.00408707 1e-05
0.00547262 -0.00419491 1e-05
0.00550205 -0.00424535 1e-05
0.00553145 -0.0042958 1e-05
0.00556082 -0.00434626 1e-05
0.00559017 -0.00439674 1e-05
0.00561944 -0.00444707 1e-05
0.00570427 -0.00459292 1e-05
0.00578907 -0.00473877 1e-05
0.00587386 -0.00488463 1e-05
0.0059588 -0.00503041 1e-05
0.00604356 -0.00517535 1e-05
0.00606075 -0.00520463 1e-05
0.00607794 -0.00523391 1e-05
0.00609513 -0.00526319 1e-05
0.00611232 -0.00529248 1e-05
0.00612952 -0.00532175 1e-05
0.0062274 -0.00548826 1e-05
0.00632551 -0.00565464 1e-05
0.00642385 -0.00582088 1e-05
0.00652258 -0.00598689 1e-05
0.00661893 -0.00614766 1e-05
0.00663669 -0.00617706 1e-05
0.00665445 -0.00620645 1e-05
0.00667222 -0.00623584 1e-05
0.00669 -0.00626523 1e-05
0.00670783 -0.00629466 1e-05
0.00680602 -0.0064565 1e-05
0.00690466 -0.00661808 1e-05
0.00700377 -0.00677936 1e-05
0.00710344 -0.0069403 1e-05
0.00719878 -0.00709264 1e-05
0.00723466 -0.0071494 1e-05
0.0072706 -0.00720612 1e-05
0.00730659 -0.00726281 1e-05
0.00734267 -0.00731944 1e-05
0.00737912 -0.00737644 1e-05
0.00745992 -0.00750237 1e-05
0.00754115 -0.00762802 1e-05
0.0076228 -0.0077534 1e-05
0.00770492 -0.00787847 1e-05
0.00778313 -0.00799641 1e-05
0.00786111 -0.00811285 1e-05
0.00793944 -0.00822906 1e-05
0.00801815 -0.00834501 1e-05
0.00809734 -0.00846063 1e-05
0.00817898 -0.00857872 1e-05
0.00821759 -0.00863403 1e-05
0.00825631 -0.00868926 1e-05
0.00829514 -0.00874441 1e-05
0.00833409 -0.00879948 1e-05
0.00837203 -0.00885288 1e-05
0.00849073 -0.0090191 1e-05
0.00861042 -0.00918461 1e-05
0.00873112 -0.00934938 1e-05
0.00885299 -0.00951328 1e-05
0.00896551 -0.00966229 1e-05
0.00897293 -0.00967197 1e-05
0.00898035 -0.00968164 1e-05
0.00898777 -0.00969131 1e-05
0.0089952 -0.00970098 1e-05
0.00900266 -0.00971067 1e-05
0.00911485 -0.00985636 1e-05
0.009228 -0.0100013 1e-05
0.00934214 -0.0101455 1e-05
0.00945728 -0.0102888 1e-05
0.0095636 -0.0104192 1e-05
[...]
POINT_DATA 12298
 FIELD attributes 2
p 1 12298 float
177603 177685 177758 177821 177875 177920
109537 109556 109572 109586 109598 109609
88345.9 88355.4 88364.8 88373.9 88382.9 88391.3
80530.3 80536.6 80542.8 80548.9 80555 80561
77741.4 77750.6 77759.8 77769 77778.2 77787.4
78160.6 78174.1 78187.7 78201.3 78214.8 78228.4
81695.7 81708.1 81720.3 81732.4 81744.3 81756.1
91523.9 91543.7 91562.7 91581 91598.6 91615.5
117957 117990 118020 118048 118074 118098
216076 215886 215694 215500 215304 215106
177603 173998 169671 165093 163426 159495 156112 153461 145296 135255 129812 124383 120445 119834 118982 112937 107038 102916 102021 101154 100171 99188.9 97761.9 96293.3 94577.2 94210.8 93844 93476.5 92995.7 92498.2 90578.5 88774.6 87260.1 86472.4 85695.4 85009.1 84343.9 83693.5 83041.3 82207.8 82172.7 82143.5 82115.3 82087.1 82058.1 81525.2 80992.7 80460.7 79929.2 79504 79077.4 78667.8 78269.7 77893.6 77527.3 77176.9 76826.1 76501.9 76200 75898.4 75608.5 75318.3 75039.3 74776 74512.9 74258.7 74004.5 73753.9 73517.2 73280.6 73051.2 72821.7 72590.7 72370.6 72150.9 71936.8 71722.7 71503.4 71292.1 71081 70873.4 70666.1 70452.3 70239.6 70027.1 69814.9 69603.1 69387.1 69158.9 68931.2 68698.2 68463 68219 67965.3 67699.7 67420.9 67108.3 66796.8 66486.9 66172.9 66158.3 66140.8 66123 66105.3 66088.2 65714.6 65346.3 64983.1 64601.7 64143 63629.7 63122 62437.5 61667.4 60859.6 60586.7 60325.2 60075.5 59826.5 59627.4 59102.2 58575 58046.1 57600.2 57159.7 56558.8 55955.6 55419 54881 54419.5 54382.8 54346 54311.1 54281 54250.7 53701.3 53145.3 52624.9 52155.5 51609.5 51598.3 51587.1 51576.8 51567.8 51558.9 51134.6 50701 50305.8 49970.4 49702.1 49615 49527.4 49465.2 49404 49340.4 49144 48945 48744 48592.9 48455.3 48288 48124.8 47989.3 47851.8 47697.5 47686.2 47674.9 47663.6 47653.4 47643.6 47540.4 47426.9 47310.8 47196.3 47088.2 47051.9 47014.4 46974.1 46933.1 46888.5 46866.9 46845.2 46823.4 46800.7 46778.2 46750.3 46720.9 46681.2 46636 46591.8 46593 46593.7 46591.6 46589.3 46586.8 46573.8 46560.3 46546.5 46529.8 46512.9 46519.4 46525 46525.7 46525.8 46525.2 46524.7 46524.2 46523.7 46523.2 46522.6 46532.2 46541.4 46549.9 46555.9 46561.5 46572.5 46583.4 46593.7 46603.8 46614.1 46621.2 46628.2 46635 46641.6 46648.1 46666.8 46685.4 46703.9 46722.4 46741.2 46745.7 46750.1 46754.6 46759.4 46764.1 46787.4 46810.6 46834.6 46859 46883.6 46886.3 46889.1 46892 46895.1 46898.3 46923.2 46948.3 46974.6 47002 47029 47032 47034.9 47038.1 47041.6 47045.1 47068.6 47092.3 47117.1 47143.8 47169.5 47175.5 47181.5 47188.3 47195.4 47202.7 47220.9 47239.3 47258.2 47278.9 47298.7 47311.4 47324.1 47339.2 47354.7 47370.7 47378.8 47386.9 47395.2 47404 47412.6 47431.7 47451 47472.5 47494.8 47516.3 47517.3 47518.3 47519.4 47520.5 47521.7 47539.9 47558.4 47577.2 47597.7 47616.7 47625.6 47634.8 47645 47655.3 47666.1 47673.7 47681.3 47688.9 47697 47704.9 47719.9 47735.1 47751.4 47769.5 47786.2 47790.1 47794.2 47798.6 47803.1 47807.6 47818.3 47828.9 47839.7 47851.2 47862.3 47874.8 47887.5 47901.6 47916.1 47930.4 47933.2 47936.3 47939.5 47942.8 47946.1 47955.7 47965.3 47974.9 47985.1 47995.2 48005.8 48016.5 48028.3 48041.3 48053.6 48058.6 48064 48069.8 48075.6 48081.8 48086.8 48091.7 48096.6 48101.8 48107.2 48116.2 48125.6 48135.5 48146.7 48157.3 48165 48173.2 48182.3 48191.3 48200.6 48202.7 48205 48207.5 48209.9 48212.5 48218 48223.6 48229.1 48234.8 48241 48247.3 48253.8 48260.7 48268.9 48276.8 48281.8 48286.9 48293.1 48299.6 48306.3 48309.3 48313.2 48317.2 48321.1 48325.6 48326.5 48327.4 48328.4 48329.3 48330.4 48334.3 48338.3 48342.3 48346.4 48351.4 48353.5 48355.7 48358.6 48362.4 48366.1 48367 48367.8 48369.6 48372.1 48374.5 48374.2 48374.6 48375.2 48375.8 48376.8 48376 48375.6 48375.3 48374.9 48374.4 48374.2 48374.1 48373.9 48373.7 48373.7 48371.8 48370.1 48368.4 48366.7 48365.7 48362.2 48359 48356.1 48353.6 48351.4 48346.6 48341.8 48337.7 48334.2 48330.7 48324.8 48318.8 48313.3 48308.6 48303.9 48296.8 48289.8 48283.3 48276.9 48271 48262.7 48254.9 48247.1 48239.4 48232.1 48222.9 48214 48205.1 48196.1 48187.3 48183.3 48179.3 48175.3 48171.3 48167 48161.1 48155.2 48149.2 48143.3 48137.5 48126.3 48115.3 48104.2 48093.2 48082.3 48069.8 48057.8 48045.7 48033.5 48021.7 48008.1 47994.9 47981.8 47968.7 47955.8 47941.2 47926.9 47912.8 47898.8 47884.9 47869.4 47853.9 47838.9 47823.9 47809 47792.7 47776.3 47760.3 47744.4 47728.5 47711.3 47694.1 47677.1 47660.4 47643.6 47625.6 47607.6 47589.7 47572.1 47554.5 47535.7 47517 47498.2 47479.7 47461.3 47441.9 47422.4 47402.8 47383.6 47364.4 47344.2 47324 47303.8 47283.7 47263.8 47243 47222.2 47201.3 47180.5 47159.9 47138.5 47117 47095.4 47073.9 47052.7 47030.7 47008.6 46986.5 46964.4 46942.5 46920 46897.3 46874.6 46851.9 46829.5 46806.4 46783.2 46760 46736.8 46713.8 46690.2 46666.5 46642.8 46619.1 46595.5 46571.5 46547.3 46523.2 46499 46474.9 46450.5 46425.9 46401.3 46376.7 46352.1 46327.2 46302.2 46277.2 46252.2 46227.3 46202 46176.6 46151.2 46125.8 46100.5 46074.8 46049 46023.3 45997.5 45971.8 45945.8 45919.7 45893.6 45867.5 45841.5 45815.1 45788.7 45762.3 45735.9 45709.5 45682.8 45656.1 45629.4 45602.7 45576 45549.1 45522.1 45495.1 45468.1 45441.1 45413.9 45386.7 45359.4 45332.2 45304.9 45277.4 45249.9 45222.4 45194.9 45167.4 45139.7 45112 45084.2 45056.5 45028.7 45000.8 44972.8 44944.8 44916.9 44888.9 44863.4 44837.9 44812.5 44787 44748 44746.4 44744.7 44743 44741.4 44739.6 44712.9 44686.2 44659.5 44632.8 44606.1 44577.5 44548.9 44520.3 44491.7 44463.1 44434.4 44405.6 44376.8 44348 44319.3 44290.3 44261.4 44232.4 44203.4 44174.5 44146.1 44117.7 44089.3 44060.9 44052.5 44047.8 44043 44038.3 44033.5 44028.8 43999.5 43970.2 43940.9 43911.6 43882.2 43852.8 43823.3 43793.8 43764.3 43734.9 43705.2 43675.6 43645.9 43616.3 43586.6 43556.8 43527 43497.2 43467.4 43437.6 43407.6 43377.7 43347.7 43317.7 43287.7 43257.6 43227.5 43197.4 43167.2 43137.1 43106.8 43076.5 43046.2 43015.9 42985.7 42955.2 42924.8 42894.3 42863.9 42833.4 42802.8 42772.2 42741.6 42711 42680.4 42649.6 42618.8 42588.1 42557.3 42526.5 42495.6 42464.7 42433.7 42402.8 42371.9 42340.8 42309.7 42278.6 42247.5 42216.4 42185.2 42153.9 42122.6 42091.4 42060.1 42028.7 41997.3 41965.8 41934.4 41903 41871.4 41839.8 41808.2 41776.6 41745 41713.3 41681.5 41649.7 41618 41586.2 41554.2 41522.3 41490.4 41458.4 41426.4 41394.4 41362.2 41330.1 41298 41265.8 41233.6 41201.3 41169 41136.7 41104.3 41071.9 41039.4 41006.9 40974.4 40941.9 40909.2 40876.6 40843.9 40811.2 40778.5 40745.7 40712.8 40679.9 40647.1 40614.2 40581.1 40548.1 40515 40482 40448.8 40415.6 40382.4 40349.1 40315.8 40282.5 40249.1 40215.6 40182.2 40148.7 40115.2 40081.6 40047.9 40014.2 39980.6 39946.8 39913 39879.1 39845.2 39811.3 39777.4 39743.4 39709.3 39675.2 39641.1 39606.9 39572.6 39538.3 39504 39469.7 39435.3 39400.8 39366.3 39331.8 39297.2 39262.6 39227.9 39193.1 39158.4 39123.6 39088.8 39053.8 39018.8 38983.8 38948.8 38913.8 38878.6 38843.4 38808.1 38772.9 38737.6 38702.2 38666.7 38631.3 38595.8 38560.2 38524.6 38488.9 38453.2 38417.5 38381.7 38345.8 38309.8 38273.9 38237.9 38201.9 38165.7 38129.5 38093.3 38057.1 38020.8 37984.4 37947.9 37911.5 37875 37838.5 37801.8 37765.1 37728.4 37691.7 37654.8 37617.9 37581 37544 37507 37469.9 37432.8 37395.5 37358.3 37321 37283.7 37246.2 37208.7 37171.2 37133.7 37096.1 37058.4 37020.6 36982.8 36945 36907.1 36869.1 36831.1 36793 36754.9 36716.8 36678.5 36640.2 36601.9 36563.5 36525.1 36486.5 36447.9 36409.3 36370.6 36331.9 36293.1 36254.2 36215.3 36176.3 36137.3 36098.2 36059 36019.8 35980.6 35941.3 35901.9 35862.4 35822.9 35783.4 35743.8 35704.1 35664.4 35624.6 35584.7 35544.9 35504.8 35464.8 35424.7 35384.6 35344.4 35304.1 35263.7 35223.3 35182.9 35142.4 35101.8 35061.1 35020.4 34979.7 34938.9 34898 34857 34816 34774.9 34733.9 34692.6 34651.3 34610 34568.6 34527.2 34485.7 34444.1 34402.5 34360.8 34319.1 34277.2 34235.3 34193.3 34151.3 34109.3 34067.1 34024.9 33982.6 33940.2 33897.9 33855.4 33812.8 33770.2 33727.6 33684.9 33642 33599.2 33556.3 33513.3 33470.2 33427.1 33383.9 33340.6 33297.3 33254 33210.4 33166.9 33123.3 33079.7 33036 32992.2 32948.3 32904.4 32860.4 32816.4 32772.2 32728 32683.7 32639.4 32595 32550.5 32506 32461.4 32416.7 32372 32327.1 32282.2 32237.3 32192.3 32147.2 32102 32056.8 32011.5 31966.1 31920.7 31875.1 31829.6 31783.9 31738.2 31692.5 31646.5 31600.6 31554.6 31508.5 31462.4 31416.2 31369.9 31323.5 31277.1 31230.6 31184 31137.3 31090.6 31043.8 30997 30950 30903 30855.9 30808.7 30761.6 30714.2 30666.8 30619.4 30571.9 30524.3 30476.6 30428.8 30381 30333.1 30285.2 30237.1 30189 30140.8 30092.5 30044.3 29995.8 29947.3 29898.7 29850.1 29801.4 29752.5 29703.7 29654.7 29605.7 29556.7 29507.4 29458.2 29408.8 29359.4 29310 29260.4 29210.7 29161 29111.2 29061.4 29011.4 28961.4 28911.3 28861.1 28810.9 28760.5 28710 28659.5 28609 28558.4 28507.6 28456.7 28405.8 28354.9 28303.9 28252.7 28201.4 28150.1 28098.8 28047.4 27995.7 27944.1 27892.4 27840.6 27788.8 27736.8 27684.7 27632.6 27580.4 27528.2 27475.7 27423.3 27370.7 27318.1 27265.5 27212.6 27159.7 27106.8 27053.7 27000.7 26947.4 26894.1 26840.7 26787.2 26733.8 26680.1 26626.3 26572.5 26518.6 26464.8 26410.6 26356.4 26302.2 26247.9 26193.6 26139.1 26084.5 26029.9 25975.2 25920.5 25865.5 25810.5 25755.5 25700.5 25645.4 25590 25534.7 25479.4 25424 25368.6 25312.9 25257.3 25201.7 25146 25090.4 25034.5 24978.7 24923 24867.2 24811.5 24755.6 24699.8 24644.1 24588.5 24532.8 24477.1 24421.8 24366.7 24311.6 24256.9 24202.2 24147.2 24092.2 24037.2 23981.9 23927.2 23878.6 23829.9 23781.3 23737.4 23688 23622.6 23557.2 23491.7 23417.5 23367.4 23337.4 23307.7 23278.3 23265.7 23260.7 23255.6 23250.5 23245.4 23243.5 23240.3 23233.9 23227.5 23221.1 23214 23187.9 23161.6 23135 23108.3 23066.2 22990.7 22921.7 22852.8 22783.9 22727.4 22676.1 22619.8 22563.4 22507 22444.4 22376.7 22308.6 22240.5 22172.4 22103.9 22032.6 21959.3 21886.1 21812.9 21737.5 21659.3 21579.5 21499.7 21419.9 21338.5 21254.2 21168 21081.9 20995.7 20907.7 20816.7 20723.8 20630.8 20537.8 20443 20344.9 20244.6 20144.3 20043.9 19941.6 19835.7 19727.4 19619.1 19510.7 19400.2 19285.9 19168.8 19051.5 18934.2 18814.4 18690.4 18563.6 18436.6 18309.6 18180.2 18046.1 17908.1 17769.9 17631.5 17489.6 17342.6 17192.9 17043 16893 16740.7 16582.9 16418.2 16253.3 16088 15916.5 15738.8 15560.6 15382.4 15204.2 15026.1 14841.4 14641.8 14441.4 14240.3 14025 13801.8 13588.7 13376.1 13164.1 12962.7 12753.8 12506.1 12256.3 12004.5 11715.1 11415 11159.7 10907.2 10657.2 10452.4 10239.8 9923.39 9599.77 9267.92 8835.16 8386.1 8073.76 7776.09 7496.02 7350.91 7199.87 6802.58 6358.08 5840.46 5090.94 4312.51 3781.03 3399.99 3251.98 3317.79 3384.18 3362.63 2778.21 1388.7 0