# vtk DataFile Version 2.0
track0
ASCII
DATASET POLYDATA
POINTS 12298 float
-0.0205 0.001 1e-05
-0.02052 0.000999216 1e-05
-0.02054 0.000998592 1e-05
-0.02056 0.000998126 1e-05
-0.02058 0.000997818 1e-05
-0.0206 0.000997665 1e-05
-0.0205 0.00367778 1e-05
-0.02052 0.00367703 1e-05
-0.02054 0.00367643 1e-05
-0.02056 0.00367599 1e-05
-0.02058 0.00367569 1e-05
-0.0206 0.00367554 1e-05
-0.0205 0.00635556 1e-05
-0.02052 0.00635527 1e-05
-0.02054 0.00635505 1e-05
-0.02056 0.00635488 1e-05
-0.02058 0.00635476 1e-05
-0.0206 0.00635471 1e-05
-0.0205 0.00903333 1e-05
-0.02052 0.00903311 1e-05
-0.02054 0.00903293 1e-05
-0.02056 0.0090328 1e-05
-0.02058 0.00903271 1e-05
-0.0206 0.00903266 1e-05
-0.0205 0.0117111 1e-05
-0.02052 0.0117111 1e-05
-0.02054 0.011711 1e-05
-0.02056 0.011711 1e-05
-0.02058 0.011711 1e-05
-0.0206 0.011711 1e-05
-0.0205 0.0143889 1e-05
-0.02052 0.014389 1e-05
-0.02054 0.014389 1e-05
-0.02056 0.0143891 1e-05
-0.02058 0.0143891 1e-05
-0.0206 0.0143891 1e-05
-0.0205 0.0170667 1e-05
-0.02052 0.017067 1e-05
-0.02054 0.0170672 1e-05
-0.02056 0.0170674 1e-05
-0.02058 0.0170675 1e-05
-0.0206 0.0170676 1e-05
-0.0205 0.0197444 1e-05
-0.02052 0.019745 1e-05
-0.02054 0.0197454 1e-05
-0.02056 0.0197457 1e-05
-0.02058 0.0197459 1e-05
-0.0206 0.019746 1e-05
-0.0205 0.0224222 1e-05
-0.02052 0.022423 1e-05
-0.02054 0.0224236 1e-05
-0.02056 0.0224241 1e-05
-0.02058 0.0224244 1e-05
-0.0206 0.0224245 1e-05
-0.0205 0.0251 1e-05
-0.02052 0.0251003 1e-05
-0.02054 0.0251005 1e-05
-0.02056 0.0251007 1e-05
-0.02058 0.0251008 1e-05
-0.0206 0.0251008 1e-05
-0.0205 0.001 1e-05
-0.0203632 0.00100536 1e-05
-0.0202266 0.00101331 1e-05
-0.0200901 0.00102296 1e-05
-0.0200427 0.00102682 1e-05
-0.0198376 0.00104418 1e-05
-0.0196338 0.00107322 1e-05
-0.0194327 0.00111734 1e-05
-0.0192367 0.00118023 1e-05
-0.0190172 0.00124951 1e-05
-0.0189002 0.00128348 1e-05
-0.0187827 0.00131598 1e-05
-0.0186649 0.001347 1e-05
-0.0185468 0.001377 1e-05
-0.0183807 0.00141936 1e-05
-0.018204 0.00146457 1e-05
-0.0180267 0.00150691 1e-05
-0.0178487 0.00154639 1e-05
-0.0176703 0.00158388 1e-05
-0.0174976 0.00161989 1e-05
-0.0172846 0.00166392 1e-05
-0.0170715 0.0017074 1e-05
-0.0168582 0.00175028 1e-05
-0.0166448 0.00179218 1e-05
-0.0163944 0.00184007 1e-05
-0.0163232 0.00185323 1e-05
-0.0162521 0.00186627 1e-05
-0.0161809 0.00187919 1e-05
-0.0161097 0.00189198 1e-05
-0.0160387 0.00190456 1e-05
-0.0157586 0.00195346 1e-05
-0.0154779 0.00199927 1e-05
-0.0151968 0.0020422 1e-05
-0.0149154 0.00208278 1e-05
-0.0146381 0.00212129 1e-05
-0.0143837 0.00215523 1e-05
-0.0141292 0.00218763 1e-05
-0.0138744 0.00221853 1e-05
-0.0136195 0.00224796 1e-05
-0.0132934 0.00228364 1e-05
-0.013279 0.00228511 1e-05
-0.0132646 0.00228657 1e-05
-0.0132502 0.00228803 1e-05
-0.0132358 0.00228949 1e-05
-0.0132209 0.00229098 1e-05
-0.0129773 0.00231543 1e-05
-0.0127335 0.00233865 1e-05
-0.0124895 0.00236061 1e-05
-0.0122455 0.00238129 1e-05
-0.0120025 0.00240058 1e-05
-0.0117547 0.00241911 1e-05
-0.0115067 0.00243631 1e-05
-0.0112587 0.00245237 1e-05
-0.0110106 0.00246742 1e-05
-0.0107632 0.00248146 1e-05
-0.0105252 0.00249405 1e-05
-0.0102872 0.00250564 1e-05
-0.0100491 0.00251622 1e-05
-0.00981105 0.00252599 1e-05
-0.00957337 0.002535 1e-05
-0.00934491 0.00254294 1e-05
-0.00911643 0.00255011 1e-05
-0.00888792 0.00255653 1e-05
-0.0086594 0.0025622 1e-05
-0.00843108 0.00256723 1e-05
-0.00821175 0.00257145 1e-05
-0.00799241 0.00257506 1e-05
-0.00777306 0.00257805 1e-05
-0.0075537 0.00258034 1e-05
-0.00733443 0.00258204 1e-05
-0.00712387 0.0025831 1e-05
-0.0069133 0.00258362 1e-05
-0.00670273 0.00258358 1e-05
-0.00649216 0.00258286 1e-05
-0.0062816 0.00258152 1e-05
-0.00607944 0.00257964 1e-05
-0.0058773 0.00257721 1e-05
-0.00567516 0.00257424 1e-05
-0.00547303 0.00257053 1e-05
-0.00527083 0.0025661 1e-05
-0.00507675 0.00256116 1e-05
-0.00488269 0.0025556 1e-05
-0.00468865 0.00254941 1e-05
-0.00449464 0.00254242 1e-05
-0.00430044 0.0025345 1e-05
-0.00411412 0.00252603 1e-05
-0.00392783 0.00251677 1e-05
-0.00374159 0.00250674 1e-05
-0.0035554 0.00249576 1e-05
-0.00336883 0.00248354 1e-05
-0.00318995 0.00247066 1e-05
-0.00301115 0.00245672 1e-05
-0.00283244 0.00244166 1e-05
-0.00265385 0.00242532 1e-05
-0.00247443 0.00240744 1e-05
-0.0023027 0.00238874 1e-05
-0.00213114 0.00236853 1e-05
-0.00195981 0.00234645 1e-05
-0.00178873 0.00232252 1e-05
-0.00161577 0.00229643 1e-05
-0.00160904 0.00229534 1e-05
-0.00160231 0.00229425 1e-05
-0.00159557 0.00229315 1e-05
-0.00158884 0.00229204 1e-05
-0.00158236 0.00229098 1e-05
-0.00142417 0.00226484 1e-05
-0.00126635 0.00223654 1e-05
-0.00110893 0.00220614 1e-05
-0.000951915 0.00217369 1e-05
-0.000791418 0.00213819 1e-05
-0.000633135 0.0021003 1e-05
-0.000475552 0.00205959 1e-05
-0.000318706 0.00201613 1e-05
-0.000162795 0.00196943 1e-05
0 0.00191656 1e-05
4.13186e-05 0.00190203 1e-05
8.25153e-05 0.00188715 1e-05
0.000123591 0.00187194 1e-05
0.000164549 0.00185642 1e-05
0.000197301 0.00184371 1e-05
0.000263519 0.00181755 1e-05
0.000329365 0.00179048 1e-05
0.000394827 0.00176248 1e-05
0.000459893 0.00173358 1e-05
0.000528387 0.00170207 1e-05
0.000634886 0.00165132 1e-05
0.000740282 0.00159832 1e-05
0.000844516 0.00154306 1e-05
0.00094763 0.00148574 1e-05
0.00103488 0.00143491 1e-05
0.00104008 0.00143176 1e-05
0.00104528 0.0014286 1e-05
0.00105047 0.00142543 1e-05
0.00105566 0.00142226 1e-05
0.00106088 0.00141906 1e-05
0.00116821 0.00135313 1e-05
0.00127404 0.00128483 1e-05
0.00137829 0.00121413 1e-05
0.001481 0.00114123 1e-05
0.00159752 0.00105511 1e-05
0.00160006 0.00105314 1e-05
0.0016026 0.00105117 1e-05
0.00160514 0.0010492 1e-05
0.00160768 0.00104723 1e-05
0.0016102 0.00104526 1e-05
0.00170483 0.000971554 1e-05
0.00179803 0.000896047 1e-05
0.00188973 0.000818722 1e-05
0.00198001 0.000739754 1e-05
0.00205017 0.000676461 1e-05
0.0020678 0.000660149 1e-05
0.00208537 0.000643768 1e-05
0.00210287 0.000627316 1e-05
0.00212032 0.000610814 1e-05
0.00213833 0.000593697 1e-05
0.00219382 0.000540626 1e-05
0.00224877 0.000486984 1e-05
0.00230314 0.000432763 1e-05
0.00235692 0.000377955 1e-05
0.00240488 0.000328297 1e-05
0.00246057 0.000269779 1e-05
0.00251566 0.000210693 1e-05
0.00257015 0.000151055 1e-05
0.00262415 9.0972e-05 1e-05
0.00268334 2.39864e-05 1e-05
0.00268749 1.91891e-05 1e-05
0.00269165 1.43886e-05 1e-05
0.0026958 9.58502e-06 1e-05
0.00269994 4.77821e-06 1e-05
0.00270406 0 1e-05
0.0027675 -7.37405e-05 1e-05
0.0028303 -0.000148026 1e-05
0.00289244 -0.000222863 1e-05
0.0029539 -0.000298264 1e-05
0.00301038 -0.000368672 1e-05
0.00305482 -0.000424924 1e-05
0.00309896 -0.000481419 1e-05
0.00314278 -0.000538153 1e-05
0.00318635 -0.000595082 1e-05
0.00323259 -0.000656076 1e-05
0.0032512 -0.000680883 1e-05
0.00326975 -0.000705734 1e-05
0.00328824 -0.000730629 1e-05
0.00330667 -0.00075557 1e-05
0.00332472 -0.000780104 1e-05
0.00339195 -0.000871886 1e-05
0.00345855 -0.000964127 1e-05
0.0035245 -0.00105684 1e-05
0.00358987 -0.00114996 1e-05
0.00365161 -0.00123894 1e-05
0.00367851 -0.00127815 1e-05
0.00370532 -0.00131743 1e-05
0.00373205 -0.00135676 1e-05
0.00375871 -0.00139614 1e-05
0.00378611 -0.00143673 1e-05
0.00382828 -0.00149946 1e-05
0.00387024 -0.00156234 1e-05
0.00391197 -0.00162537 1e-05
0.00395346 -0.00168855 1e-05
0.00399379 -0.00175034 1e-05
0.00406381 -0.00185833 1e-05
0.00413334 -0.00196665 1e-05
0.00420234 -0.0020753 1e-05
0.00427097 -0.00218417 1e-05
0.00434393 -0.00230081 1e-05
0.00434632 -0.00230467 1e-05
0.00434871 -0.00230852 1e-05
0.0043511 -0.00231238 1e-05
0.00435349 -0.00231623 1e-05
0.00435587 -0.00232009 1e-05
0.00443444 -0.002447 1e-05
0.00451253 -0.0025742 1e-05
0.00459016 -0.00270169 1e-05
0.00466733 -0.00282945 1e-05
0.00474255 -0.00295457 1e-05
0.00477526 -0.00300924 1e-05
0.00480791 -0.00306394 1e-05
0.00484051 -0.00311867 1e-05
0.00487309 -0.00317342 1e-05
0.00490609 -0.00322892 1e-05
0.00495743 -0.00331533 1e-05
0.00500863 -0.00340182 1e-05
0.00505968 -0.00348841 1e-05
0.00511058 -0.00357507 1e-05
0.00516094 -0.00366093 1e-05
0.00522327 -0.00376739 1e-05
0.0052855 -0.0038739 1e-05
0.00534762 -0.00398049 1e-05
0.00540973 -0.00408707 1e-05
0.00547262 -0.00419491 1e-05
0.00550205 -0.00424535 1e-05
0.00553145 -0.0042958 1e-05
0.00556082 -0.00434626 1e-05
0.00559017 -0.00439674 1e-05
0.00561944 -0.00444707 1e-05
0.00570427 -0.00459292 1e-05
0.00578907 -0.00473877 1e-05
0.00587386 -0.00488463 1e-05
0.0059588 -0.00503041 1e-05
0.00604356 -0.00517535 1e-05
0.00606075 -0.00520463 1e-05
0.00607794 -0.00523391 1e-05
0.00609513 -0.00526319 1e-05
0.00611232 -0.00529248 1e-05
0.00612952 -0.00532175 1e-05
0.0062274 -0.00548826 1e-05
0.00632551 -0.00565464 1e-05
0.00642385 -0.00582088 1e-05
0.00652258 -0.00598689 1e-05
0.00661893 -0.00614766 1e-05
0.00663669 -0.00617706 1e-05
0.00665445 -0.00620645 1e-05
0.00667222 -0.00623584 1e-05
0.00669 -0.00626523 1e-05
0.00670783 -0.00629466 1e-05
0.00680602 -0.0064565 1e-05
0.00690466 -0.00661808 1e-05
0.00700377 -0.00677936 1e-05
0.00710344 -0.0069403 1e-05
0.00719878 -0.00709264 1e-05
0.00723466 -0.0071494 1e-05
0.0072706 -0.00720612 1e-05
0.00730659 -0.00726281 1e-05
0.00734267 -0.00731944 1e-05
0.00737912 -0.00737644 1e-05
0.00745992 -0.00750237 1e-05
0.00754115 -0.00762802 1e-05
0.0076228 -0.0077534 1e-05
0.00770492 -0.00787847 1e-05
0.00778313 -0.00799641 1e-05
0.00786111 -0.00811285 1e-05
0.00793944 -0.00822906 1e-05
0.00801815 -0.00834501 1e-05
0.00809734 -0.00846063 1e-05
0.00817898 -0.00857872 1e-05
0.00821759 -0.00863403 1e-05
0.00825631 -0.00868926 1e-05
0.00829514 -0.00874441 1e-05
0.00833409 -0.00879948 1e-05
0.00837203 -0.00885288 1e-05
0.00849073 -0.0090191 1e-05
0.00861042 -0.00918461 1e-05
0.00873112 -0.00934938 1e-05
0.00885299 -0.00951328 1e-05
0.00896551 -0.00966229 1e-05
0.00897293 -0.00967197 1e-05
0.00898035 -0.00968164 1e-05
0.00898777 -0.00969131 1e-05
0.0089952 -0.00970098 1e-05
0.00900266 -0.00971067 1e-05
0.00911485 -0.00985636 1e-05
0.009228 -0.0100013 1e-05
0.00934214 -0.0101455 1e-05
0.00945728 -0.0102888 1e-05
0.0095636 -0.0104192 1e-05
[...]
POINT_DATA 12298
 FIELD attributes 1
U 3 12298 float
9.72339 	0.38131 	0 9.77872 	0.305048 	0 9.83405 	0.228764 	0 9.8894 	0.152464 	0 9.94476 	0.0761529 	0 10 	0 	0
10.0671 	0.375469 	0 10.0537 	0.300375 	0 10.0403 	0.225263 	0 10.0268 	0.150136 	0 10.0134 	0.074998 	0 10 	0 	0
10.0363 	0.141561 	0 10.0291 	0.113295 	0 10.0218 	0.0850824 	0 10.0145 	0.0569219 	0 10.0071 	0.0288141 	0 10 	0 	0
10.0137 	0.111502 	0 10.011 	0.0892019 	0 10.0082 	0.0669009 	0 10.0055 	0.0445996 	0 10.0027 	0.0222979 	0 10 	0 	0
10.0097 	0.0196431 	0 10.0078 	0.0157144 	0 10.0058 	0.0117858 	0 10.0039 	0.00785721 	0 10.0019 	0.0039286 	0 10 	0 	0
10.0102 	-0.0372984 	0 10.0082 	-0.0298388 	0 10.0061 	-0.022379 	0 10.0041 	-0.0149193 	0 10.002 	-0.00745959 	0 10 	0 	0
10.0174 	-0.149013 	0 10.0139 	-0.119211 	0 10.0105 	-0.0894068 	0 10.007 	-0.059602 	0 10.0035 	-0.0297966 	0 10 	0 	0
10.0362 	-0.265917 	0 10.029 	-0.212734 	0 10.0217 	-0.159544 	0 10.0145 	-0.106348 	0 10.0072 	-0.0531492 	0 10 	0 	0
10.0563 	-0.387177 	0 10.045 	-0.309742 	0 10.0338 	-0.232286 	0 10.0225 	-0.154814 	0 10.0112 	-0.0773301 	0 10 	0 	0
8.30133 	-0.114495 	0 8.4287 	-0.0915961 	0 8.55659 	-0.0686962 	0 8.68498 	-0.0457958 	0 8.81385 	-0.0228949 	0 8.94315 	0 	0
9.72339 	0.38131 	0 9.5415 	0.555238 	0 9.39671 	0.663647 	0 9.26204 	0.754267 	0 9.21831 	0.780381 	0 8.95346 	1.27613 	0 8.7058 	1.91034 	0 8.48176 	2.72181 	0 8.46727 	2.6712 	0 8.47256 	2.45983 	0 8.50121 	2.3531 	0 8.52503 	2.24425 	0 8.51226 	2.16305 	0 8.42492 	2.14732 	0 8.3022 	2.12552 	0 8.30123 	1.98203 	0 8.28721 	1.83791 	0 8.21189 	1.72562 	0 8.03509 	1.675 	0 7.86316 	1.62568 	0 7.68332 	1.5675 	0 7.50184 	1.50865 	0 7.428 	1.45828 	0 7.36153 	1.40759 	0 7.27868 	1.34658 	0 7.22255 	1.32364 	0 7.16622 	1.30059 	0 7.1097 	1.27743 	0 7.07941 	1.25431 	0 7.05304 	1.23113 	0 6.97407 	1.13831 	0 6.88854 	1.05221 	0 6.79895 	0.980283 	0 6.71202 	0.932056 	0 6.62288 	0.88365 	0 6.55094 	0.833766 	0 6.49229 	0.787587 	0 6.44241 	0.74387 	0 6.3886 	0.69912 	0 6.31688 	0.642403 	0 6.3147 	0.640298 	0 6.31312 	0.638465 	0 6.31162 	0.63667 	0 6.31012 	0.634873 	0 6.30856 	0.633026 	0 6.27116 	0.597206 	0 6.23132 	0.561059 	0 6.189 	0.524579 	0 6.14416 	0.487762 	0 6.10914 	0.456624 	0 6.07567 	0.421395 	0 6.04529 	0.391472 	0 6.01653 	0.365083 	0 5.99387 	0.34021 	0 5.97251 	0.315889 	0 5.95173 	0.289824 	0 5.92892 	0.263549 	0 5.91258 	0.242555 	0 5.90237 	0.223656 	0 5.89067 	0.204694 	0 5.87792 	0.184711 	0 5.86363 	0.164628 	0 5.85478 	0.145153 	0 5.85172 	0.128895 	0 5.84739 	0.11261 	0 5.84103 	0.0960761 	0 5.83343 	0.0795007 	0 5.83116 	0.0609098 	0 5.83386 	0.0451967 	0 5.83536 	0.0294833 	0 5.83435 	0.0143086 	0 5.83244 	-0.000975741 	0 5.83606 	-0.0198904 	0 5.84386 	-0.0372028 	0 5.85055 	-0.0544431 	0 5.85468 	-0.0703592 	0 5.8577 	-0.0862508 	0 5.86681 	-0.10751 	0 5.87997 	-0.128801 	0 5.89165 	-0.150023 	0 5.9012 	-0.169201 	0 5.90949 	-0.188312 	0 5.92352 	-0.213669 	0 5.94202 	-0.242314 	0 5.95866 	-0.270823 	0 5.97422 	-0.296812 	0 5.98815 	-0.322657 	0 6.00683 	-0.354231 	0 6.03048 	-0.394999 	0 6.05165 	-0.435528 	0 6.0735 	-0.473669 	0 6.09497 	-0.513662 	0 6.1198 	-0.559918 	0 6.14402 	-0.612233 	0 6.16763 	-0.671535 	0 6.19419 	-0.72964 	0 6.22488 	-0.802314 	0 6.2518 	-0.874611 	0 6.27492 	-0.946384 	0 6.2945 	-1.01961 	0 6.29551 	-1.02318 	0 6.29662 	-1.02762 	0 6.29774 	-1.03214 	0 6.29885 	-1.03666 	0 6.29991 	-1.04101 	0 6.32108 	-1.13335 	0 6.33746 	-1.22378 	0 6.34915 	-1.31234 	0 6.35856 	-1.40659 	0 6.37052 	-1.52493 	0 6.38764 	-1.64994 	0 6.39855 	-1.7729 	0 6.38715 	-1.91326 	2.467e-20 6.34834 	-2.06171 	5.04424e-20 6.29807 	-2.21558 	7.79827e-20 6.28882 	-2.27109 	1.35038e-20 6.27514 	-2.32313 	-5.62066e-21 6.25686 	-2.37154 	2.26924e-20 6.2379 	-2.41965 	5.17695e-20 6.22215 	-2.45798 	7.57014e-20 6.19652 	-2.5483 	1.71506e-19 6.16914 	-2.63812 	2.71078e-19 6.14003 	-2.72742 	3.74396e-19 6.09604 	-2.80393 	2.61653e-19 6.0426 	-2.8796 	5.98402e-20 5.96277 	-2.9988 	4.64429e-20 5.87822 	-3.11614 	3.41954e-20 5.78163 	-3.2138 	6.33137e-21 5.68065 	-3.30955 	-2.05261e-20 5.59045 	-3.38981 	-4.26303e-20 5.58463 	-3.39569 	-4.24874e-20 5.5788 	-3.40156 	-4.23385e-20 5.57293 	-3.40702 	-4.30827e-20 5.56698 	-3.41143 	-4.61562e-20 5.56098 	-3.41587 	-4.92482e-20 5.44154 	-3.51205 	-3.09215e-20 5.3165 	-3.60546 	-1.25827e-20 5.18994 	-3.68362 	-2.35807e-21 5.06404 	-3.74265 	-2.88348e-21 4.91449 	-3.80901 	-2.59368e-21 4.91104 	-3.81061 	-1.58848e-21 4.9076 	-3.8122 	-5.83119e-22 4.9043 	-3.8135 	5.73249e-22 4.90121 	-3.81442 	1.93807e-21 4.89815 	-3.81532 	3.29414e-21 4.77265 	-3.86667 	9.18333e-23 4.64249 	-3.91481 	1.48628e-21 4.51634 	-3.95019 	3.2682e-21 4.39825 	-3.96796 	5.44101e-21 4.30276 	-3.98082 	7.35011e-21 4.27602 	-3.98767 	1.19335e-20 4.24912 	-3.99447 	1.65469e-20 4.22683 	-3.99613 	8.21645e-21 4.20465 	-3.99751 	-7.00207e-22 4.18159 	-3.9989 	-9.90966e-21 4.10448 	-4.00715 	-6.50857e-20 4.02609 	-4.01483 	-1.19852e-19 3.94656 	-4.02178 	-1.72623e-19 3.87923 	-4.01665 	-1.04831e-19 3.81784 	-4.01162 	-4.34115e-20 3.74266 	-4.01431 	2.677e-21 3.66765 	-4.01418 	3.9267e-20 3.59794 	-4.00327 	3.17467e-20 3.52722 	-3.99191 	2.44875e-20 3.44781 	-3.97883 	1.67534e-20 3.44191 	-3.97816 	1.78661e-20 3.436 	-3.97748 	1.89792e-20 3.43009 	-3.9768 	2.00929e-20 3.4245 	-3.97559 	2.1029e-20 3.41908 	-3.97418 	2.1888e-20 3.35123 	-3.96408 	1.3911e-20 3.28064 	-3.95076 	7.16156e-21 3.20883 	-3.93672 	4.06772e-22 3.13663 	-3.9101 	6.48748e-21 3.06868 	-3.88428 	1.27003e-20 3.02703 	-3.87509 	3.48529e-20 2.98509 	-3.86446 	5.00462e-20 2.9439 	-3.8466 	2.32059e-20 2.9023 	-3.82851 	-3.57579e-21 2.85745 	-3.80895 	-3.21047e-20 2.83839 	-3.8024 	-3.85115e-20 2.81923 	-3.79579 	-4.49208e-20 2.79998 	-3.78912 	-5.13325e-20 2.78082 	-3.78001 	-5.78324e-20 2.76197 	-3.7704 	-6.42405e-20 2.70793 	-3.7504 	-1.08268e-19 2.65304 	-3.72988 	-1.5242e-19 2.59756 	-3.7003 	-1.47475e-19 2.54241 	-3.66396 	-8.89953e-20 2.48926 	-3.6289 	-3.31659e-20 2.47143 	-3.62005 	3.0915e-21 2.45356 	-3.61092 	3.68196e-20 2.4368 	-3.59851 	3.15953e-20 2.41996 	-3.58606 	2.64131e-20 2.40254 	-3.57318 	2.11202e-20 2.37214 	-3.55508 	5.73069e-20 2.34149 	-3.53679 	9.34101e-20 2.31057 	-3.5183 	1.29427e-19 2.28067 	-3.49507 	1.04336e-19 2.25141 	-3.47177 	7.36746e-20 2.2117 	-3.44577 	4.2187e-20 2.17149 	-3.41933 	1.07762e-20 2.13423 	-3.38565 	-5.31798e-21 2.09659 	-3.3517 	-2.145e-20 2.05592 	-3.31511 	-3.87358e-20 2.05437 	-3.31397 	-3.77855e-20 2.05282 	-3.31283 	-3.68358e-20 2.05127 	-3.31169 	-3.58866e-20 2.0498 	-3.31033 	-3.86461e-20 2.04835 	-3.30896 	-4.16752e-20 2.01148 	-3.27652 	-1.4485e-19 1.97476 	-3.24303 	-2.35236e-19 1.93813 	-3.2085 	-3.02162e-19 1.90483 	-3.16838 	-1.9485e-19 1.87203 	-3.12894 	-8.97539e-20 1.86059 	-3.11692 	-7.5541e-20 1.8491 	-3.10487 	-6.13194e-20 1.83933 	-3.09127 	-4.81919e-20 1.82984 	-3.07739 	-3.52485e-20 1.82021 	-3.06331 	-2.21246e-20 1.80021 	-3.04137 	-3.64097e-22 1.78011 	-3.01933 	2.1417e-20 1.76027 	-2.99681 	3.85176e-20 1.74282 	-2.97165 	2.33138e-20 1.7255 	-2.9467 	8.27442e-21 1.70816 	-2.92385 	-1.02309e-20 1.69073 	-2.90093 	-2.8704e-20 1.67614 	-2.87621 	-2.66389e-21 1.66248 	-2.85092 	3.75574e-20 1.64868 	-2.82535 	7.82574e-20 1.63945 	-2.81315 	5.44492e-20 1.63021 	-2.80094 	3.06836e-20 1.62133 	-2.78843 	2.03845e-20 1.61373 	-2.775 	5.56558e-20 1.60615 	-2.7616 	9.08237e-20 1.58829 	-2.73159 	2.64961e-19 1.57042 	-2.70157 	4.39119e-19 1.55578 	-2.67032 	3.76397e-19 1.54303 	-2.63847 	1.82438e-19 1.5305 	-2.60691 	-1.11896e-20 1.52641 	-2.60027 	-2.51408e-20 1.52233 	-2.59363 	-3.90903e-20 1.51859 	-2.58683 	-4.19396e-20 1.51547 	-2.57974 	-2.49165e-20 1.51235 	-2.57266 	-7.89751e-21 1.49796 	-2.54035 	-9.4726e-21 1.48371 	-2.50815 	-1.10943e-20 1.47236 	-2.47555 	8.61881e-22 1.46392 	-2.44267 	2.59114e-20 1.45604 	-2.41101 	5.01533e-20 1.45308 	-2.40483 	5.52846e-20 1.45012 	-2.39865 	6.04152e-20 1.44765 	-2.39236 	6.2612e-20 1.44564 	-2.38595 	6.20642e-20 1.44363 	-2.37953 	6.15123e-20 1.43493 	-2.35038 	3.76871e-20 1.42646 	-2.32143 	1.38149e-20 1.41996 	-2.2927 	-7.28442e-22 1.41699 	-2.26426 	2.20712e-21 1.41456 	-2.23756 	4.98797e-21 1.41073 	-2.22655 	4.36065e-20 1.40693 	-2.21556 	8.22843e-20 1.40437 	-2.20453 	7.2206e-20 1.40238 	-2.1935 	4.09149e-20 1.40041 	-2.18243 	9.41915e-21 1.39741 	-2.16174 	-5.25202e-20 1.39459 	-2.14122 	-1.14323e-19 1.39271 	-2.12125 	-1.5304e-19 1.39497 	-2.10345 	-7.09002e-20 1.39737 	-2.08684 	7.33848e-21 1.39259 	-2.06572 	5.1379e-21 1.38794 	-2.04474 	2.92875e-21 1.38742 	-2.02571 	-1.42865e-20 1.38759 	-2.0071 	-3.34225e-20 1.38797 	-1.98821 	-5.30799e-20 1.38779 	-1.97954 	-5.51488e-20 1.38764 	-1.9709 	-5.72394e-20 1.38778 	-1.96248 	-5.92797e-20 1.38943 	-1.95515 	-6.08889e-20 1.39108 	-1.94808 	-6.24757e-20 1.38752 	-1.9187 	-2.77336e-19 1.38432 	-1.88963 	-4.94146e-19 1.38584 	-1.86388 	-3.66409e-19 1.38877 	-1.83918 	-1.63027e-19 1.3932 	-1.81758 	7.37417e-20 1.393 	-1.81578 	8.11726e-20 1.3928 	-1.81398 	8.8607e-20 1.39291 	-1.81238 	8.51293e-20 1.39303 	-1.81079 	8.11936e-20 1.39316 	-1.8092 	7.72462e-20 1.39478 	-1.78661 	5.72897e-20 1.3968 	-1.76434 	3.74363e-20 1.39935 	-1.74249 	1.87667e-20 1.40528 	-1.72316 	2.37933e-20 1.41112 	-1.70581 	2.85729e-20 1.41145 	-1.69156 	1.39872e-20 1.412 	-1.67747 	6.28295e-22 1.41449 	-1.66475 	1.53806e-20 1.41712 	-1.65216 	3.01596e-20 1.42001 	-1.63922 	4.55275e-20 1.4219 	-1.63119 	4.79537e-20 1.42386 	-1.62321 	5.0413e-20 1.42588 	-1.61529 	5.29055e-20 1.4288 	-1.60822 	5.54812e-20 1.43177 	-1.60153 	5.80038e-20 1.43435 	-1.57993 	1.56992e-19 1.43729 	-1.55862 	2.56966e-19 1.44209 	-1.53899 	2.4347e-19 1.44973 	-1.52117 	1.30694e-19 1.45717 	-1.50518 	2.62524e-20 1.45815 	-1.49877 	4.92972e-20 1.4593 	-1.49252 	6.47876e-20 1.46101 	-1.48676 	5.11563e-20 1.46275 	-1.48104 	3.75833e-20 1.46458 	-1.4752 	2.37316e-20 1.46855 	-1.46293 	-1.84571e-20 1.47271 	-1.4508 	-6.0288e-20 1.47705 	-1.43881 	-1.01757e-19 1.48236 	-1.428 	-3.94696e-20 1.48777 	-1.41821 	4.91641e-20 1.49215 	-1.39942 	1.50705e-19 1.49688 	-1.3809 	2.53161e-19 1.50329 	-1.36439 	2.45301e-19 1.51061 	-1.3485 	2.14232e-19 1.51886 	-1.3346 	1.46987e-19 1.52019 	-1.32979 	1.69624e-19 1.52168 	-1.32518 	1.77517e-19 1.52341 	-1.32088 	1.60422e-19 1.52517 	-1.31659 	1.43343e-19 1.527 	-1.31221 	1.25838e-19 1.53194 	-1.30081 	9.48517e-20 1.53708 	-1.28954 	6.38738e-20 1.54241 	-1.2784 	3.29051e-20 1.5483 	-1.26822 	2.79516e-20 1.55429 	-1.25916 	3.91539e-20 1.55986 	-1.24269 	-3.9831e-20 1.56577 	-1.22645 	-1.19337e-19 1.57256 	-1.21172 	-1.16272e-19 1.58138 	-1.19849 	-5.00479e-20 1.59 	-1.18634 	1.27702e-20 1.59341 	-1.1776 	-1.20955e-20 1.59712 	-1.16941 	-1.75938e-20 1.60111 	-1.16172 	-5.87104e-21 1.60519 	-1.1541 	5.74157e-21 1.60963 	-1.14607 	1.7965e-20 1.61307 	-1.14018 	3.56495e-20 1.61656 	-1.13434 	5.32211e-20 1.62012 	-1.12854 	7.06795e-20 1.6238 	-1.12312 	5.42354e-20 1.62752 	-1.1183 	-6.77366e-21 1.63378 	-1.10379 	-1.29934e-19 1.64111 	-1.08993 	-2.16196e-19 1.64933 	-1.07666 	-2.70565e-19 1.65812 	-1.0653 	-1.7309e-19 1.66673 	-1.05471 	-8.02295e-20 1.67365 	-1.04049 	-1.12454e-19 1.68094 	-1.02705 	-1.3746e-19 1.68864 	-1.01492 	-1.48328e-19 1.69663 	-1.00297 	-1.59338e-19 1.70555 	-0.99234 	-1.5314e-19 1.70793 	-0.987984 	-2.00474e-19 1.71036 	-0.98404 	-1.99553e-19 1.71283 	-0.980242 	-1.82783e-19 1.71533 	-0.976462 	-1.66067e-19 1.71796 	-0.972537 	-1.48692e-19 1.72347 	-0.964611 	-1.30654e-19 1.72912 	-0.956761 	-1.12711e-19 1.73489 	-0.948988 	-9.48616e-20 1.74076 	-0.94156 	-8.35726e-20 1.74649 	-0.935322 	-9.47828e-20 1.75359 	-0.922813 	-1.28109e-19 1.76147 	-0.910811 	-1.49088e-19 1.77026 	-0.899412 	-1.54205e-19 1.77906 	-0.889932 	-1.16688e-19 1.78777 	-0.880938 	-8.05118e-20 1.79545 	-0.868712 	-1.08486e-19 1.80336 	-0.856828 	-1.32081e-19 1.81121 	-0.84664 	-1.18552e-19 1.8198 	-0.836921 	-9.15832e-20 1.82893 	-0.828049 	-4.94288e-20 1.83547 	-0.818572 	-1.3254e-19 1.84184 	-0.810482 	-1.058e-19 1.84835 	-0.802537 	-7.396e-20 1.855 	-0.794673 	-4.23935e-20 1.86264 	-0.785929 	-7.23366e-21 1.86422 	-0.78421 	-2.41547e-21 1.86581 	-0.782494 	2.3947e-21 1.86741 	-0.780783 	7.19684e-21 1.86902 	-0.779076 	1.1991e-20 1.8705 	-0.77771 	3.95352e-21 1.87849 	-0.767644 	3.10411e-20 1.88697 	-0.757939 	4.68457e-20 1.89568 	-0.748355 	6.2412e-20 1.9045 	-0.73918 	6.6479e-20 1.91268 	-0.731854 	1.14997e-20 1.92049 	-0.721489 	-6.10421e-20 1.92868 	-0.711382 	-1.24106e-19 1.9377 	-0.702138 	-1.39675e-19 1.94612 	-0.694703 	-7.95537e-20 1.95453 	-0.687521 	-2.06635e-20 1.96277 	-0.677431 	-1.0646e-20 1.97123 	-0.66745 	-6.41544e-22 1.97899 	-0.659256 	3.69126e-23 1.98748 	-0.651893 	-5.71052e-21 1.99609 	-0.644858 	-1.23171e-20 2.00472 	-0.635045 	6.43627e-20 2.01273 	-0.626677 	7.35013e-20 2.02067 	-0.618831 	6.09216e-20 2.0288 	-0.611069 	4.85339e-20 2.03737 	-0.603966 	1.4042e-23 2.04267 	-0.598395 	-2.89871e-21 2.0475 	-0.593672 	-1.49769e-20 2.05239 	-0.588979 	-2.70457e-20 2.05735 	-0.584316 	-3.91051e-20 2.06291 	-0.579192 	-5.24303e-20 2.06604 	-0.576399 	-5.76398e-20 2.0692 	-0.573616 	-6.28586e-20 2.07239 	-0.570845 	-6.80868e-20 2.0756 	-0.568084 	-7.33242e-20 2.07844 	-0.565861 	-7.8578e-20 2.08631 	-0.558061 	-1.04464e-19 2.0945 	-0.550634 	-1.17064e-19 2.10286 	-0.543282 	-1.29606e-19 2.1114 	-0.536002 	-1.4209e-19 2.11854 	-0.530696 	-7.91368e-20 2.12643 	-0.522662 	-6.43091e-20 2.13467 	-0.515213 	-3.97817e-20 2.14317 	-0.508074 	-1.07199e-20 2.1508 	-0.502172 	1.07169e-22 2.15789 	-0.497067 	1.78617e-22 2.166 	-0.489293 	6.78071e-20 2.17429 	-0.481585 	1.35501e-19 2.18242 	-0.474993 	1.38945e-19 2.1894 	-0.469951 	6.87244e-20 2.19645 	-0.464999 	-8.8265e-22 2.20474 	-0.457483 	-7.09728e-20 2.21321 	-0.450028 	-1.41076e-19 2.22032 	-0.444172 	-1.35575e-19 2.22721 	-0.439293 	-6.75482e-20 2.23418 	-0.434492 	-5.19714e-24 2.24262 	-0.427233 	2.70891e-23 2.2505 	-0.420689 	3.8231e-23 2.2573 	-0.415288 	1.44105e-23 2.26417 	-0.410182 	0 2.27102 	-0.405532 	0 2.27958 	-0.398528 	0 2.28646 	-0.393098 	0 2.29326 	-0.387895 	0 2.30017 	-0.38273 	0 2.30694 	-0.378096 	-1.18359e-20 2.31477 	-0.371965 	-3.52215e-21 2.3214 	-0.366924 	-1.29635e-20 2.32814 	-0.361917 	-2.23939e-20 2.33501 	-0.356944 	-3.18134e-20 2.34187 	-0.352148 	-4.77216e-20 2.34484 	-0.349916 	-4.02044e-20 2.34743 	-0.347974 	-4.08719e-20 2.35003 	-0.346037 	-4.1535e-20 2.35266 	-0.344105 	-4.21936e-20 2.3555 	-0.342037 	-4.28957e-20 2.3595 	-0.339178 	-4.57525e-20 2.36354 	-0.336329 	-4.85804e-20 2.36762 	-0.333492 	-5.13794e-20 2.37174 	-0.330666 	-5.41496e-20 2.37528 	-0.328291 	-4.30051e-20 2.38188 	-0.323401 	-3.68418e-20 2.38839 	-0.318749 	-3.53405e-20 2.39501 	-0.314125 	-3.38653e-20 2.40175 	-0.30953 	-3.24161e-20 2.40694 	-0.306074 	-3.70073e-20 2.41385 	-0.301076 	-8.33169e-20 2.42024 	-0.296611 	-8.75004e-20 2.42675 	-0.292172 	-9.16092e-20 2.43332 	-0.287786 	-9.4567e-20 2.4374 	-0.285055 	-3.37147e-20 2.44451 	-0.280119 	-9.34877e-20 2.45094 	-0.275724 	-1.14064e-19 2.45731 	-0.271468 	-1.25882e-19 2.4628 	-0.267811 	-1.14199e-19 2.46665 	-0.265196 	-6.13217e-20 2.47373 	-0.260478 	-1.11964e-19 2.48046 	-0.256041 	-1.41628e-19 2.48666 	-0.251964 	-1.4389e-19 2.49108 	-0.248959 	-1.14573e-19 2.49468 	-0.246458 	-7.07997e-20 2.50172 	-0.241952 	-1.13539e-19 2.50877 	-0.237515 	-1.52197e-19 2.51481 	-0.233615 	-1.46301e-19 2.51815 	-0.231188 	-9.51173e-20 2.5215 	-0.228798 	-4.33171e-20 2.52848 	-0.224502 	4.33531e-20 2.53557 	-0.220224 	1.30038e-19 2.54097 	-0.216747 	1.32419e-19 2.54401 	-0.214453 	5.4909e-20 2.5471 	-0.212173 	-2.2493e-20 2.554 	-0.20808 	-1.34032e-20 2.56101 	-0.204005 	-4.32298e-21 2.56589 	-0.200897 	8.68138e-21 2.56866 	-0.198712 	2.60282e-20 2.57148 	-0.196538 	4.33533e-20 2.5783 	-0.192645 	-4.34871e-20 2.58522 	-0.188767 	-1.30339e-19 2.58961 	-0.186 	-1.33675e-19 2.59212 	-0.18392 	-6.33629e-20 2.59467 	-0.181849 	6.86383e-21 2.60139 	-0.178151 	7.69408e-21 2.6082 	-0.174467 	8.50441e-21 2.61211 	-0.172025 	-8.67999e-21 2.61439 	-0.170033 	-4.20885e-20 2.61668 	-0.168064 	-7.60053e-20 2.62329 	-0.164556 	-4.05122e-20 2.62939 	-0.161289 	-1.20597e-20 2.63309 	-0.158991 	-1.28095e-20 2.6355 	-0.157008 	-2.60362e-20 2.63752 	-0.155138 	-4.3461e-20 2.64401 	-0.151813 	-2.6093e-20 2.64938 	-0.148934 	-1.56672e-20 2.65292 	-0.146759 	-1.63424e-20 2.65547 	-0.144803 	-2.61609e-20 2.65721 	-0.143028 	-4.3541e-20 2.66358 	-0.139882 	-1.65422e-19 2.66826 	-0.137348 	-2.1658e-19 2.67162 	-0.135293 	-2.12333e-19 2.67431 	-0.133375 	-1.65232e-19 2.67579 	-0.131693 	-4.34606e-20 2.68202 	-0.128721 	-2.60294e-20 2.68604 	-0.126492 	-8.63435e-21 2.68923 	-0.124552 	8.7472e-21 2.69206 	-0.122685 	2.44502e-20 2.69328 	-0.121093 	3.33888e-20 2.69937 	-0.118289 	9.4606e-20 2.70276 	-0.116331 	1.01165e-19 2.70578 	-0.114503 	9.9657e-20 2.70875 	-0.112694 	9.52951e-20 2.70971 	-0.111189 	3.46504e-20 2.71564 	-0.108553 	2.61561e-20 2.71845 	-0.106828 	1.76892e-20 2.7213 	-0.105107 	9.21765e-21 2.7242 	-0.103389 	7.41459e-22 2.72511 	-0.101944 	0 2.7305 	-0.0995707 	2.35091e-21 2.73314 	-0.0979493 	2.01883e-20 2.73583 	-0.0963311 	3.80177e-20 2.73856 	-0.0947161 	5.58394e-20 2.73952 	-0.09332 	7.3596e-20 2.74439 	-0.0911828 	1.65306e-19 2.74688 	-0.0896608 	1.62997e-19 2.7494 	-0.0881416 	1.60734e-19 2.75197 	-0.0866252 	1.58517e-19 2.75297 	-0.0852835 	7.54417e-20 2.75736 	-0.0833575 	5.83574e-20 2.75969 	-0.0819308 	4.13085e-20 2.76205 	-0.0805065 	2.4252e-20 2.76446 	-0.0790847 	7.18804e-21 2.76549 	-0.077801 	9.88581e-21 2.76943 	-0.0760641 	-1.12962e-23 2.77161 	-0.0747286 	-3.68481e-23 2.77382 	-0.0733952 	-6.23906e-23 2.77606 	-0.0720639 	-8.79237e-23 2.77713 	-0.0708408 	4.07117e-21 2.78065 	-0.0692732 	-3.2439e-20 2.78268 	-0.0680248 	-3.12795e-20 2.78474 	-0.0667782 	-3.01455e-20 2.78683 	-0.0655334 	-2.90369e-20 2.78792 	-0.0643725 	-3.4028e-21 2.79106 	-0.0629564 	9.23617e-23 2.79294 	-0.0617911 	6.71444e-23 2.79485 	-0.0606274 	4.19182e-23 2.7968 	-0.0594653 	1.66829e-23 2.7979 	-0.0583671 	0 2.80068 	-0.0570867 	1.76417e-20 2.80243 	-0.0560007 	4.39803e-20 2.8042 	-0.0549159 	7.03109e-20 2.806 	-0.0538325 	9.66334e-20 2.80711 	-0.0527972 	1.18182e-19 2.80957 	-0.0516383 	1.52787e-19 2.81118 	-0.0506276 	1.51843e-19 2.81281 	-0.0496181 	1.50924e-19 2.81448 	-0.0486096 	1.5003e-19 2.81559 	-0.0476367 	1.16834e-19 2.81774 	-0.0465867 	9.17983e-20 2.81922 	-0.0456475 	5.7262e-20 2.82073 	-0.0447094 	2.27208e-20 2.82227 	-0.0437721 	-1.18255e-20 2.82336 	-0.0428605 	-4.48586e-20 2.82525 	-0.0419082 	-6.31972e-20 2.82661 	-0.041037 	-6.21441e-20 2.82799 	-0.0401665 	-6.11221e-20 2.82941 	-0.0392969 	-6.01313e-20 2.83048 	-0.0384452 	-4.0921e-20 2.83212 	-0.0375807 	-3.45304e-20 2.83336 	-0.0367737 	-1.67535e-20 2.83463 	-0.0359675 	1.00693e-21 2.83593 	-0.0351618 	1.87509e-20 2.83697 	-0.0343684 	4.32022e-20 2.83839 	-0.0335828 	5.73204e-20 2.83953 	-0.0328367 	7.47895e-20 2.84068 	-0.0320911 	9.22509e-20 2.84186 	-0.031346 	1.09705e-19 2.84287 	-0.0306089 	1.27735e-19 2.8441 	-0.0298945 	1.26814e-19 2.84513 	-0.0292057 	1.17664e-19 2.84618 	-0.0285174 	1.08534e-19 2.84725 	-0.0278296 	9.94229e-20 2.84822 	-0.0271465 	8.53583e-20 2.84928 	-0.0264964 	5.99337e-20 2.85021 	-0.0258618 	3.41275e-20 2.85116 	-0.0252276 	8.31948e-21 2.85213 	-0.0245937 	-1.74902e-20 2.85305 	-0.0239624 	-4.28616e-20 2.85395 	-0.0233705 	-2.88556e-20 2.85479 	-0.0227868 	-1.11574e-20 2.85565 	-0.0222035 	6.51657e-21 2.85652 	-0.0216204 	2.41664e-20 2.85739 	-0.0210386 	4.35625e-20 2.85809 	-0.0205507 	5.30722e-20 2.85877 	-0.0200662 	6.01881e-20 2.85946 	-0.0195819 	6.73371e-20 2.86017 	-0.0190978 	7.45192e-20 2.86127 	-0.018358 	8.54425e-20 2.86131 	-0.0183293 	8.4923e-20 2.86134 	-0.0183006 	8.44235e-20 2.86138 	-0.018272 	8.3924e-20 2.86142 	-0.0182434 	8.34244e-20 2.86146 	-0.0182132 	8.2897e-20 2.86208 	-0.0177512 	7.47529e-20 2.86272 	-0.0172893 	6.66123e-20 2.86337 	-0.0168276 	5.8475e-20 2.86403 	-0.0163661 	5.03411e-20 2.86469 	-0.0159063 	4.2416e-20 2.86529 	-0.0154571 	4.38036e-20 2.8658