# vtk DataFile Version 2.0
track0
ASCII
DATASET POLYDATA
POINTS 12278 float
-0.0205 0.001 1e-05
-0.02052 0.000999216 1e-05
-0.02054 0.000998592 1e-05
-0.02056 0.000998126 1e-05
-0.02058 0.000997818 1e-05
-0.0206 0.000997665 1e-05
-0.0205 0.00367778 1e-05
-0.02052 0.00367703 1e-05
-0.02054 0.00367643 1e-05
-0.02056 0.00367599 1e-05
-0.02058 0.00367569 1e-05
-0.0206 0.00367554 1e-05
-0.0205 0.00635556 1e-05
-0.02052 0.00635527 1e-05
-0.02054 0.00635505 1e-05
-0.02056 0.00635488 1e-05
-0.02058 0.00635476 1e-05
-0.0206 0.00635471 1e-05
-0.0205 0.00903333 1e-05
-0.02052 0.00903311 1e-05
-0.02054 0.00903293 1e-05
-0.02056 0.0090328 1e-05
-0.02058 0.00903271 1e-05
-0.0206 0.00903266 1e-05
-0.0205 0.0117111 1e-05
-0.02052 0.0117111 1e-05
-0.02054 0.011711 1e-05
-0.02056 0.011711 1e-05
-0.02058 0.011711 1e-05
-0.0206 0.011711 1e-05
-0.0205 0.0143889 1e-05
-0.02052 0.014389 1e-05
-0.02054 0.014389 1e-05
-0.02056 0.0143891 1e-05
-0.02058 0.0143891 1e-05
-0.0206 0.0143891 1e-05
-0.0205 0.0170667 1e-05
-0.02052 0.017067 1e-05
-0.02054 0.0170672 1e-05
-0.02056 0.0170674 1e-05
-0.02058 0.0170675 1e-05
-0.0206 0.0170676 1e-05
-0.0205 0.0197444 1e-05
-0.02052 0.019745 1e-05
-0.02054 0.0197454 1e-05
-0.02056 0.0197457 1e-05
-0.02058 0.0197459 1e-05
-0.0206 0.019746 1e-05
-0.0205 0.0224222 1e-05
-0.02052 0.022423 1e-05
-0.02054 0.0224236 1e-05
-0.02056 0.0224241 1e-05
-0.02058 0.0224244 1e-05
-0.0206 0.0224245 1e-05
-0.0205 0.0251 1e-05
-0.02052 0.0251003 1e-05
-0.02054 0.0251005 1e-05
-0.02056 0.0251007 1e-05
-0.02058 0.0251008 1e-05
-0.0206 0.0251008 1e-05
-0.0205 0.001 1e-05
-0.0203632 0.00100536 1e-05
-0.0202266 0.00101331 1e-05
-0.0200901 0.00102296 1e-05
-0.0200427 0.00102682 1e-05
-0.0198376 0.00104418 1e-05
-0.0196338 0.00107322 1e-05
-0.0194327 0.00111734 1e-05
-0.0192368 0.00118024 1e-05
-0.0190172 0.00124951 1e-05
-0.0189002 0.00128348 1e-05
-0.0187827 0.00131598 1e-05
-0.0186649 0.001347 1e-05
-0.0185469 0.001377 1e-05
-0.0183807 0.00141936 1e-05
-0.0182041 0.00146458 1e-05
-0.0180267 0.00150692 1e-05
-0.0178487 0.0015464 1e-05
-0.0176703 0.00158389 1e-05
-0.0174976 0.00161991 1e-05
-0.0172846 0.00166394 1e-05
-0.0170715 0.00170741 1e-05
-0.0168583 0.00175029 1e-05
-0.0166449 0.00179219 1e-05
-0.0163945 0.00184007 1e-05
-0.0163234 0.00185324 1e-05
-0.0162522 0.00186629 1e-05
-0.016181 0.00187921 1e-05
-0.0161097 0.00189201 1e-05
-0.0160387 0.0019046 1e-05
-0.0157586 0.0019535 1e-05
-0.0154779 0.00199931 1e-05
-0.0151968 0.00204225 1e-05
-0.0149154 0.00208283 1e-05
-0.0146381 0.00212134 1e-05
-0.0143838 0.00215527 1e-05
-0.0141293 0.00218766 1e-05
-0.0138747 0.00221855 1e-05
-0.0136198 0.00224797 1e-05
-0.0132934 0.00228369 1e-05
-0.0132791 0.00228515 1e-05
-0.0132648 0.0022866 1e-05
-0.0132504 0.00228805 1e-05
-0.0132361 0.0022895 1e-05
-0.0132214 0.00229098 1e-05
-0.0129776 0.00231543 1e-05
-0.0127337 0.00233865 1e-05
-0.0124897 0.00236061 1e-05
-0.0122456 0.0023813 1e-05
-0.0120025 0.00240058 1e-05
-0.0117547 0.00241909 1e-05
-0.0115067 0.00243627 1e-05
-0.0112587 0.00245231 1e-05
-0.0110106 0.00246734 1e-05
-0.0107632 0.00248136 1e-05
-0.0105252 0.00249391 1e-05
-0.0102872 0.00250547 1e-05
-0.0100491 0.00251602 1e-05
-0.00981105 0.00252575 1e-05
-0.00957337 0.00253471 1e-05
-0.00934491 0.00254261 1e-05
-0.00911643 0.00254974 1e-05
-0.00888792 0.0025561 1e-05
-0.0086594 0.00256171 1e-05
-0.00843108 0.00256668 1e-05
-0.00821175 0.00257084 1e-05
-0.00799241 0.00257439 1e-05
-0.00777306 0.00257731 1e-05
-0.0075537 0.00257952 1e-05
-0.00733443 0.00258114 1e-05
-0.00712387 0.00258212 1e-05
-0.0069133 0.00258255 1e-05
-0.00670273 0.00258243 1e-05
-0.00649216 0.00258162 1e-05
-0.0062816 0.00258017 1e-05
-0.00607944 0.00257819 1e-05
-0.0058773 0.00257565 1e-05
-0.00567516 0.00257256 1e-05
-0.00547303 0.00256874 1e-05
-0.00527083 0.00256419 1e-05
-0.00507675 0.00255912 1e-05
-0.00488269 0.00255342 1e-05
-0.00468865 0.0025471 1e-05
-0.00449464 0.00253997 1e-05
-0.00430044 0.0025319 1e-05
-0.00411412 0.00252328 1e-05
-0.00392784 0.00251387 1e-05
-0.00374159 0.00250368 1e-05
-0.0035554 0.00249254 1e-05
-0.00336883 0.00248015 1e-05
-0.00318995 0.00246711 1e-05
-0.00301115 0.00245299 1e-05
-0.00283245 0.00243774 1e-05
-0.00265386 0.0024212 1e-05
-0.00247443 0.00240313 1e-05
-0.0023027 0.00238424 1e-05
-0.00213114 0.00236383 1e-05
-0.00195982 0.00234153 1e-05
-0.00178875 0.00231737 1e-05
-0.00161577 0.00229104 1e-05
-0.0016157 0.00229103 1e-05
-0.00161562 0.00229102 1e-05
-0.00161554 0.002291 1e-05
-0.00161546 0.00229099 1e-05
-0.00161539 0.00229098 1e-05
-0.00145059 0.00226407 1e-05
-0.0012862 0.00223481 1e-05
-0.00112223 0.00220325 1e-05
-0.000958715 0.00216945 1e-05
-0.000791418 0.00213235 1e-05
-0.000633135 0.00209423 1e-05
-0.000475556 0.0020533 1e-05
-0.000318719 0.00200962 1e-05
-0.000162835 0.00196264 1e-05
0 0.00190949 1e-05
3.73252e-05 0.0018963 1e-05
7.45504e-05 0.00188282 1e-05
0.000111677 0.00186908 1e-05
0.000148707 0.00185507 1e-05
0.000179007 0.00184337 1e-05
0.000248883 0.00181593 1e-05
0.000318348 0.00178746 1e-05
0.000387388 0.00175798 1e-05
0.000455987 0.00172748 1e-05
0.000528387 0.0016941 1e-05
0.000634886 0.00164312 1e-05
0.000740278 0.00158988 1e-05
0.00084451 0.00153442 1e-05
0.00094762 0.00147689 1e-05
0.00101981 0.00143468 1e-05
0.00102802 0.00142972 1e-05
0.00103623 0.00142474 1e-05
0.00104442 0.00141974 1e-05
0.00105261 0.00141473 1e-05
0.00106088 0.00140965 1e-05
0.00116821 0.00134346 1e-05
0.00127404 0.0012749 1e-05
0.00137827 0.00120394 1e-05
0.00148099 0.00113081 1e-05
0.0015966 0.00104511 1e-05
0.00159679 0.00104496 1e-05
0.00159697 0.00104482 1e-05
0.00159715 0.00104468 1e-05
0.00159733 0.00104454 1e-05
0.00159752 0.0010444 1e-05
0.00169216 0.000970841 1e-05
0.0017854 0.00089552 1e-05
0.00187716 0.000818402 1e-05
0.00196751 0.000739631 1e-05
0.00203789 0.000676366 1e-05
0.00205798 0.000657855 1e-05
0.00207798 0.000639255 1e-05
0.0020979 0.000620565 1e-05
0.00211776 0.000601812 1e-05
0.00213833 0.000582274 1e-05
0.00219144 0.000531478 1e-05
0.00224405 0.000480165 1e-05
0.00229614 0.000428328 1e-05
0.0023477 0.000375961 1e-05
0.00239398 0.000328254 1e-05
0.00245185 0.000267767 1e-05
0.00250909 0.000206679 1e-05
0.0025657 0.000145007 1e-05
0.00262179 8.28689e-05 1e-05
0.00268334 1.35109e-05 1e-05
0.00268569 1.08087e-05 1e-05
0.00268804 8.10555e-06 1e-05
0.00269039 5.40138e-06 1e-05
0.00269273 2.69622e-06 1e-05
0.00269507 0 1e-05
0.00275897 -7.37367e-05 1e-05
0.00282225 -0.000148005 1e-05
0.00288489 -0.000222813 1e-05
0.00294686 -0.000298172 1e-05
0.00300393 -0.000368654 1e-05
0.00304966 -0.000425967 1e-05
0.00309508 -0.000483527 1e-05
0.0031402 -0.000541329 1e-05
0.00318506 -0.000599326 1e-05
0.00323259 -0.000661341 1e-05
0.00325061 -0.000685091 1e-05
0.00326857 -0.000708881 1e-05
0.00328649 -0.000732711 1e-05
0.00330435 -0.000756581 1e-05
0.00332187 -0.000780089 1e-05
0.00339001 -0.000871876 1e-05
0.00345755 -0.000964106 1e-05
0.00352447 -0.00105679 1e-05
0.00359085 -0.00114986 1e-05
0.00365371 -0.00123896 1e-05
0.00368019 -0.00127689 1e-05
0.00370659 -0.00131487 1e-05
0.00373292 -0.0013529 1e-05
0.0037592 -0.00139098 1e-05
0.00378611 -0.00143008 1e-05
0.00383006 -0.00149416 1e-05
0.0038738 -0.00155838 1e-05
0.00391732 -0.00162276 1e-05
0.00396062 -0.00168728 1e-05
0.00400275 -0.00175043 1e-05
0.00407099 -0.00185331 1e-05
0.00413881 -0.00195645 1e-05
0.0042062 -0.00205988 1e-05
0.0042733 -0.00216349 1e-05
0.00434393 -0.00227321 1e-05
0.00434995 -0.00228263 1e-05
0.00435597 -0.00229205 1e-05
0.00436198 -0.00230147 1e-05
0.00436799 -0.0023109 1e-05
0.00437398 -0.0023203 1e-05
0.00445483 -0.00244725 1e-05
0.00453523 -0.00257448 1e-05
0.00461523 -0.00270197 1e-05
0.00469488 -0.00282967 1e-05
0.00477275 -0.00295497 1e-05
0.00479942 -0.00299803 1e-05
0.00482606 -0.0030411 1e-05
0.00485268 -0.00308419 1e-05
0.00487928 -0.00312729 1e-05
0.00490609 -0.00317071 1e-05
0.0049667 -0.00326889 1e-05
0.00502717 -0.00336717 1e-05
0.00508748 -0.00346554 1e-05
0.00514767 -0.00356399 1e-05
0.0052073 -0.00366161 1e-05
0.00526036 -0.00374854 1e-05
0.00531339 -0.0038355 1e-05
0.00536637 -0.00392249 1e-05
0.00541938 -0.00400946 1e-05
0.00547262 -0.00409669 1e-05
0.00551558 -0.00416697 1e-05
0.00555851 -0.00423728 1e-05
0.0056014 -0.00430761 1e-05
0.00564427 -0.00437794 1e-05
0.00568708 -0.00444811 1e-05
0.00575838 -0.00456487 1e-05
0.00582972 -0.00468161 1e-05
0.0059011 -0.00479831 1e-05
0.00597263 -0.00491493 1e-05
0.00604356 -0.00503011 1e-05
0.0060798 -0.00508874 1e-05
0.00611606 -0.00514737 1e-05
0.00615232 -0.00520598 1e-05
0.00618861 -0.00526459 1e-05
0.006225 -0.00532326 1e-05
0.00630379 -0.00545003 1e-05
0.00638276 -0.00557668 1e-05
0.00646194 -0.00570321 1e-05
0.00654138 -0.00582957 1e-05
0.00661893 -0.00595211 1e-05
0.00666283 -0.00602103 1e-05
0.00670678 -0.00608991 1e-05
0.00675079 -0.00615876 1e-05
0.00679488 -0.00622756 1e-05
0.00683935 -0.00629671 1e-05
0.00691124 -0.00640811 1e-05
0.00698337 -0.00651935 1e-05
0.00705577 -0.00663042 1e-05
0.00712846 -0.00674129 1e-05
0.00719878 -0.00684775 1e-05
0.00726948 -0.00695401 1e-05
0.0073404 -0.00706012 1e-05
0.00741154 -0.00716608 1e-05
0.007483 -0.00727183 1e-05
0.00755599 -0.00737909 1e-05
0.00760142 -0.00744538 1e-05
0.00764697 -0.00751157 1e-05
0.00769266 -0.00757768 1e-05
0.00773847 -0.0076437 1e-05
0.00778313 -0.00770772 1e-05
0.00790091 -0.00787567 1e-05
0.00801946 -0.0080431 1e-05
0.00813878 -0.00820996 1e-05
0.0082591 -0.00837611 1e-05
0.00837203 -0.00853001 1e-05
0.00837975 -0.00854039 1e-05
0.00838747 -0.00855076 1e-05
0.0083952 -0.00856113 1e-05
0.00840293 -0.0085715 1e-05
0.00841068 -0.00858189 1e-05
0.00852165 -0.00873051 1e-05
0.00863344 -0.0088785 1e-05
0.00874606 -0.00902585 1e-05
0.00885956 -0.00917254 1e-05
0.00896551 -0.00930762 1e-05
0.00903015 -0.00938896 1e-05
0.00909504 -0.00947009 1e-05
0.00916021 -0.00955101 1e-05
0.00922568 -0.00963168 1e-05
0.00929332 -0.00971439 1e-05
0.00934737 -0.00977996 1e-05
0.00940163 -0.00984537 1e-05
0.00945607 -0.00991061 1e-05
0.00951072 -0.00997569 1e-05
0.0095636 -0.0100383 1e-05
[...]
POINT_DATA 12278
 FIELD attributes 2
p 1 12278 float
177012 177094 177167 177230 177284 177329
108946 108964 108980 108994 109007 109017
87752.5 87762 87771.4 87780.5 87789.5 87797.9
79934.7 79941 79947.2 79953.4 79959.4 79965.4
77143.8 77153 77162.3 77171.5 77180.7 77189.9
77561.2 77574.8 77588.3 77601.9 77615.4 77629
81094.4 81106.8 81119 81131.1 81143 81154.8
90920.8 90940.6 90959.6 90977.9 90995.5 91012.3
117353 117385 117416 117444 117470 117494
215472 215282 215090 214896 214700 214502
177012 173407 169080 164502 162835 158904 155521 152870 144705 134664 129221 123793 119854 119244 118392 112346 106447 102325 101430 100563 99580.8 98598.6 97171.9 95703.6 93988 93621.5 93254.5 92887 92406 91908.3 89988.7 88184.8 86670.8 85883.5 85106.7 84421 83756.2 83106.4 82454.6 81620.7 81585.8 81556.9 81528.8 81500.8 81472 80939.2 80406.9 79875.1 79343.8 78918.7 78492.5 78083.3 77685.6 77310 76944.1 76594.1 76243.8 75920.1 75618.6 75317.6 75028.1 74738.4 74459.9 74197.1 73934.5 73680.8 73427.1 73177.1 72940.9 72704.8 72475.9 72247 72016.5 71797 71577.8 71364.2 71150.7 70932 70721.2 70510.5 70303.4 70096.5 69883.5 69671.1 69458.9 69247 69035.6 68820.4 68592.4 68364.8 68131.9 67896.2 67652.1 67399.5 67133.6 66853.3 66539.6 66227.4 65916.8 65603.8 65603.6 65603.4 65603.2 65603 65602.8 65211.5 64825.9 64446 64047.8 63567.6 63052.1 62542.4 61841.3 61068.1 60255 60006.8 59769 59542 59315.7 59130.4 58573.3 58014.1 57452.8 56979.4 56510.9 55906.3 55303.6 54763.8 54222.7 53838.6 53780.4 53722.1 53666.6 53618.9 53570.6 53017.4 52457 51939 51466.6 50921.6 50920.5 50919.3 50918.3 50917.4 50916.5 50489.4 50054.9 49652.5 49317.1 49048.1 48948.8 48849 48778.1 48708.3 48635.6 48447.3 48256.5 48064 47919.7 47787.6 47614.8 47446.1 47306.4 47164.6 47005.2 46998.9 46992.5 46986.1 46980.4 46974.9 46869.6 46757.3 46642.5 46529.3 46422.3 46386.8 46350 46310.4 46270 46226.2 46206.1 46185.8 46165.4 46144.3 46123.2 46097.9 46071.1 46034.1 45991.8 45950.2 45952.7 45954.8 45954.1 45953.3 45952.3 45941 45929.3 45917.2 45902.2 45887 45896.8 45905.9 45910.4 45914.4 45918.2 45917.3 45916.5 45915.6 45914.6 45913.5 45927 45940.7 45953.3 45964.1 45974.4 45984.7 45994.9 46004.8 46014.5 46024.3 46035.8 46047.2 46058.4 46069.5 46080.4 46098.9 46117.3 46135.8 46154.3 46173 46181.5 46190.1 46198.8 46207.9 46217 46239.7 46262.4 46285.8 46309.7 46333.5 46340.9 46348.3 46356.1 46364.3 46372.6 46395.8 46419.2 46443.3 46468.6 46493.3 46502.3 46511.2 46520.9 46531.1 46541.4 46561.1 46580.8 46601.2 46623.1 46644.4 46658.3 46672.2 46687.9 46704.2 46720.9 46732.5 46744 46755.7 46768.4 46780.8 46802.8 46824.9 46850.4 46876.6 46902.5 46903.6 46904.8 46906.1 46907.5 46908.9 46930.1 46951.5 46973.3 46997.2 47019.5 47029.1 47038.7 47049.7 47060.8 47072.2 47081.9 47091.6 47101.4 47111.8 47122 47139.2 47156.5 47175.5 47195.3 47214.7 47217.3 47219.9 47222.9 47225.8 47228.8 47243.2 47257.6 47272.1 47287.7 47302.6 47316.4 47330.6 47346.1 47361.7 47378.6 47378.7 47378.7 47378.8 47378.9 47378.9 47393.5 47408.3 47423.1 47439 47454.3 47466.3 47478.9 47492.5 47506.2 47519.3 47519.9 47520.6 47521.3 47522 47522.7 47534.4 47546.3 47558.2 47570.8 47583.3 47593.6 47603.9 47615.5 47627.7 47639.7 47643.8 47648.2 47652.9 47657.5 47662.4 47668.3 47674.2 47680 47686.2 47692.5 47701.3 47710.5 47720.2 47731.1 47741.5 47749.2 47757.3 47766.2 47775.1 47784.3 47786.4 47788.9 47791.4 47794 47796.6 47802 47807.3 47812.7 47818.2 47824.3 47830.5 47837.1 47844 47852 47859.9 47864.9 47870 47876.2 47882.9 47889.6 47893.2 47897.9 47902.6 47907.2 47912.5 47912.8 47913 47913.3 47913.5 47913.8 47917.9 47922.1 47926.2 47930.3 47935.4 47937.7 47940.3 47943.2 47947.1 47951 47952.2 47953.3 47955.2 47958 47960.7 47960.6 47961.1 47962 47962.9 47964.3 47963.5 47963.2 47962.9 47962.6 47962.3 47962.2 47962.2 47962.2 47962.2 47962.2 47960.9 47959.5 47958.2 47956.8 47956 47952.9 47950.3 47947.7 47945.5 47943.7 47939.3 47935 47931.3 47928.2 47925.2 47919.7 47914.2 47909.2 47905 47900.7 47894.1 47887.5 47881.4 47875.7 47870.3 47862.5 47855.1 47847.9 47840.6 47834 47825.3 47816.9 47808.5 47800.1 47792 47783.4 47775 47766.6 47758.1 47748.2 47747.5 47746.8 47746 47745.3 47744.6 47734.2 47723.7 47713.3 47702.8 47692.5 47680.7 47669.2 47657.8 47646.2 47635 47622 47609.5 47597 47584.5 47572.3 47558.3 47544.7 47531.2 47517.8 47504.6 47489.7 47475 47460.6 47446.3 47432 47416.3 47400.6 47385.3 47370.1 47354.9 47338.4 47321.8 47305.6 47289.5 47273.4 47256.1 47238.7 47221.6 47204.6 47187.7 47169.6 47151.5 47133.5 47115.8 47098 47079.2 47060.4 47041.6 47023.1 47004.6 46985.1 46965.6 46946 46926.7 46907.5 46887.4 46867.2 46847 46827 46807.1 46786.3 46765.6 46744.7 46724 46703.4 46682.1 46660.7 46639.3 46617.9 46596.7 46574.9 46552.9 46530.9 46509 46487.2 46464.9 46442.4 46419.8 46397.3 46375 46352.2 46329.2 46306.2 46283.1 46260.3 46237 46213.5 46190 46166.6 46143.2 46119.5 46095.6 46071.6 46047.7 46023.9 45999.8 45975.4 45951.1 45926.8 45902.6 45878 45853.3 45828.6 45803.9 45779.3 45754.3 45729.2 45704.2 45679.1 45654.1 45628.8 45603.4 45578 45552.6 45527.2 45501.6 45475.9 45450.2 45424.4 45398.8 45372.8 45346.8 45320.8 45294.8 45268.8 45242.5 45216.2 45189.9 45163.6 45137.3 45110.8 45084.3 45057.7 45031.1 45004.6 44977.8 44951 44924.2 44897.3 44870.5 44843.5 44816.5 44789.4 44762.3 44735.3 44708 44680.8 44653.5 44626.2 44598.9 44571.4 44543.9 44516.4 44488.9 44461.4 44433.7 44406 44378.3 44350.6 44322.9 44295 44267.1 44239.2 44211.3 44183.3 44155.3 44127.2 44099.1 44070.9 44042.8 44014.6 43986.3 43958 43929.7 43901.4 43872.9 43844.5 43816 43787.5 43759 43730.4 43701.7 43673.1 43644.4 43615.8 43587 43558.1 43529.3 43500.5 43471.6 43442.6 43413.6 43384.6 43355.6 43326.6 43297.5 43268.3 43239.1 43209.9 43180.7 43151.4 43122.1 43092.7 43063.4 43034 43004.5 42975 42945.5 42916 42886.4 42856.8 42827.1 42797.4 42767.7 42738 42708.2 42678.3 42648.5 42618.6 42588.7 42558.7 42528.7 42498.6 42468.6 42438.5 42408.4 42378.2 42348 42317.7 42287.5 42257.2 42226.8 42196.4 42166 42135.6 42105.1 42074.5 42043.9 42013.4 41982.8 41952.1 41921.3 41890.6 41859.8 41829 41798.1 41767.2 41736.3 41705.3 41674.4 41643.3 41612.2 41581 41549.9 41518.8 41487.5 41456.2 41424.9 41393.6 41362.2 41330.7 41299.2 41267.7 41236.2 41204.7 41173 41141.3 41109.6 41077.9 41046.1 41014.3 40982.4 40950.4 40918.5 40886.6 40854.5 40822.4 40790.3 40758.2 40726 40693.7 40661.4 40629.1 40596.7 40564.4 40531.9 40499.3 40466.8 40434.2 40401.6 40368.9 40336.2 40303.4 40270.7 40237.8 40204.9 40171.9 40139 40106 40072.9 40039.8 40006.6 39973.4 39940.1 39906.9 39873.5 39840.1 39806.6 39773.2 39739.7 39706.1 39672.4 39638.7 39605 39571.3 39537.5 39503.6 39469.6 39435.7 39401.7 39367.7 39333.5 39299.4 39265.2 39231 39196.6 39162.2 39127.9 39093.5 39059 39024.4 38989.8 38955.1 38920.5 38885.7 38850.9 38816 38781.1 38746.2 38711.2 38676.1 38641 38605.8 38570.7 38535.4 38500.1 38464.7 38429.3 38393.8 38358.3 38322.7 38287.1 38251.4 38215.7 38179.9 38144.1 38108.1 38072.2 38036.2 38000.2 37964 37927.8 37891.6 37855.4 37819.1 37782.7 37746.2 37709.7 37673.2 37636.6 37599.9 37563.2 37526.4 37489.6 37452.8 37415.8 37378.8 37341.7 37304.7 37267.5 37230.3 37193 37155.7 37118.3 37080.9 37043.4 37005.8 36968.1 36930.5 36892.8 36855 36817.1 36779.2 36741.3 36703.3 36665.2 36627 36588.8 36550.6 36512.3 36473.9 36435.4 36397 36358.4 36319.9 36281.2 36242.4 36203.6 36164.8 36125.9 36086.9 36047.9 36008.8 35969.7 35930.5 35891.2 35851.8 35812.4 35773 35733.5 35693.9 35654.3 35614.6 35574.9 35535.1 35495.2 35455.2 35415.2 35375.2 35335.1 35294.8 35254.6 35214.3 35173.9 35133.5 35093 35052.4 35011.8 34971.1 34930.4 34889.5 34848.6 34807.7 34766.7 34725.7 34684.5 34643.3 34602 34560.7 34519.4 34477.9 34436.4 34394.8 34353.1 34311.5 34269.7 34227.8 34185.9 34143.9 34102 34059.8 34017.6 33975.4 33933.1 33890.8 33848.3 33805.8 33763.3 33720.7 33678 33635.2 33592.4 33549.5 33506.5 33463.6 33420.4 33377.3 33334.1 33290.8 33247.5 33204 33160.5 33116.9 33073.3 33029.7 32985.8 32942 32898.1 32854.1 32810.2 32766 32721.8 32677.6 32633.3 32589 32544.4 32499.9 32455.4 32410.7 32366 32321.2 32276.3 32231.4 32186.4 32141.4 32096.2 32051 32005.7 31960.3 31915 31869.4 31823.8 31778.2 31732.5 31686.8 31640.9 31595 31549 31502.9 31456.8 31410.6 31364.3 31317.9 31271.5 31225.1 31178.4 31131.8 31085.1 31038.3 30991.5 30944.5 30897.5 30850.5 30803.3 30756.2 30708.8 30661.4 30614 30566.5 30519 30471.2 30423.5 30375.7 30327.8 30279.9 30231.8 30183.7 30135.5 30087.2 30039 29990.5 29942 29893.5 29844.8 29796.2 29747.3 29698.5 29649.5 29600.5 29551.5 29502.2 29453 29403.7 29354.3 29304.9 29255.2 29205.6 29155.9 29106.1 29056.3 29006.3 28956.3 28906.2 28856 28805.8 28755.4 28705 28654.5 28603.9 28553.3 28502.5 28451.7 28400.8 28349.8 28298.9 28247.6 28196.4 28145.1 28093.7 28042.4 27990.7 27939.1 27887.4 27835.6 27783.8 27731.8 27679.7 27627.6 27575.4 27523.2 27470.8 27418.3 27365.8 27313.2 27260.6 27207.7 27154.8 27101.8 27048.8 26995.8 26942.5 26889.2 26835.8 26782.3 26728.9 26675.1 26621.4 26567.6 26513.7 26459.9 26405.7 26351.5 26297.3 26243 26188.7 26134.2 26079.6 26025 25970.3 25915.6 25860.6 25805.6 25750.6 25695.6 25640.5 25585.1 25529.8 25474.5 25419.1 25363.7 25308 25252.4 25196.8 25141.2 25085.5 25029.6 24973.8 24918.1 24862.4 24806.6 24750.7 24694.9 24639.3 24583.6 24527.9 24472.2 24416.9 24361.8 24306.7 24252 24197.3 24142.4 24087.4 24032.4 23977 23922.3 23873.6 23825 23776.4 23732.6 23683.4 23618.1 23552.6 23487.1 23412.6 23361.4 23331 23301 23271.2 23257 23252.8 23248.7 23244.5 23240.4 23238.8 23236.2 23230.9 23225.7 23220.4 23214.7 23187.7 23160.5 23133.1 23105.4 23061.8 22985.9 22916.9 22848 22779.1 22722.8 22671.7 22615.4 22559 22502.7 22440 22372.3 22304.2 22236.1 22168 22099.5 22028.2 21955 21881.7 21808.5 21733.1 21654.9 21575.1 21495.3 21415.5 21334.1 21249.8 21163.7 21077.5 20991.4 20903.4 20812.4 20719.5 20626.5 20533.5 20438.7 20340.6 20240.4 20140.1 20039.7 19937.4 19831.5 19723.3 19615 19506.6 19396.1 19281.8 19164.7 19047.5 18930.2 18810.4 18686.4 18559.7 18432.8 18305.7 18176.3 18042.2 17904.3 17766.1 17627.8 17485.9 17339 17189.3 17039.4 16889.5 16737.2 16579.4 16414.8 16249.9 16084.7 15913.2 15735.5 15557.3 15379.2 15201 15023 14838.3 14638.8 14438.5 14237.4 14022.1 13798.9 13585.8 13373.3 13161.4 12960 12751.2 12503.7 12253.9 12002 11712.7 11412.6 11157.2 10904.7 10654.9 10450.2 10237.6 9921.63 9598.05 9265.89 8833.21 8384.22 8071.46 7773.84 7494.25 7349.15 7198.11 6801.63 6357.17 5838.93 5089.56 4311.28 3779.13 3398.21 3250.87 3316.6 3382.92 3361.98 2777.11 1388.14 0