# vtk DataFile Version 2.0
track0
ASCII
DATASET POLYDATA
POINTS 12278 float
-0.0205 0.001 1e-05
-0.02052 0.000999216 1e-05
-0.02054 0.000998592 1e-05
-0.02056 0.000998126 1e-05
-0.02058 0.000997818 1e-05
-0.0206 0.000997665 1e-05
-0.0205 0.00367778 1e-05
-0.02052 0.00367703 1e-05
-0.02054 0.00367643 1e-05
-0.02056 0.00367599 1e-05
-0.02058 0.00367569 1e-05
-0.0206 0.00367554 1e-05
-0.0205 0.00635556 1e-05
-0.02052 0.00635527 1e-05
-0.02054 0.00635505 1e-05
-0.02056 0.00635488 1e-05
-0.02058 0.00635476 1e-05
-0.0206 0.00635471 1e-05
-0.0205 0.00903333 1e-05
-0.02052 0.00903311 1e-05
-0.02054 0.00903293 1e-05
-0.02056 0.0090328 1e-05
-0.02058 0.00903271 1e-05
-0.0206 0.00903266 1e-05
-0.0205 0.0117111 1e-05
-0.02052 0.0117111 1e-05
-0.02054 0.011711 1e-05
-0.02056 0.011711 1e-05
-0.02058 0.011711 1e-05
-0.0206 0.011711 1e-05
-0.0205 0.0143889 1e-05
-0.02052 0.014389 1e-05
-0.02054 0.014389 1e-05
-0.02056 0.0143891 1e-05
-0.02058 0.0143891 1e-05
-0.0206 0.0143891 1e-05
-0.0205 0.0170667 1e-05
-0.02052 0.017067 1e-05
-0.02054 0.0170672 1e-05
-0.02056 0.0170674 1e-05
-0.02058 0.0170675 1e-05
-0.0206 0.0170676 1e-05
-0.0205 0.0197444 1e-05
-0.02052 0.019745 1e-05
-0.02054 0.0197454 1e-05
-0.02056 0.0197457 1e-05
-0.02058 0.0197459 1e-05
-0.0206 0.019746 1e-05
-0.0205 0.0224222 1e-05
-0.02052 0.022423 1e-05
-0.02054 0.0224236 1e-05
-0.02056 0.0224241 1e-05
-0.02058 0.0224244 1e-05
-0.0206 0.0224245 1e-05
-0.0205 0.0251 1e-05
-0.02052 0.0251003 1e-05
-0.02054 0.0251005 1e-05
-0.02056 0.0251007 1e-05
-0.02058 0.0251008 1e-05
-0.0206 0.0251008 1e-05
-0.0205 0.001 1e-05
-0.0203632 0.00100536 1e-05
-0.0202266 0.00101331 1e-05
-0.0200901 0.00102296 1e-05
-0.0200427 0.00102682 1e-05
-0.0198376 0.00104418 1e-05
-0.0196338 0.00107322 1e-05
-0.0194327 0.00111734 1e-05
-0.0192368 0.00118024 1e-05
-0.0190172 0.00124951 1e-05
-0.0189002 0.00128348 1e-05
-0.0187827 0.00131598 1e-05
-0.0186649 0.001347 1e-05
-0.0185469 0.001377 1e-05
-0.0183807 0.00141936 1e-05
-0.0182041 0.00146458 1e-05
-0.0180267 0.00150692 1e-05
-0.0178487 0.0015464 1e-05
-0.0176703 0.00158389 1e-05
-0.0174976 0.00161991 1e-05
-0.0172846 0.00166394 1e-05
-0.0170715 0.00170741 1e-05
-0.0168583 0.00175029 1e-05
-0.0166449 0.00179219 1e-05
-0.0163945 0.00184007 1e-05
-0.0163234 0.00185324 1e-05
-0.0162522 0.00186629 1e-05
-0.016181 0.00187921 1e-05
-0.0161097 0.00189201 1e-05
-0.0160387 0.0019046 1e-05
-0.0157586 0.0019535 1e-05
-0.0154779 0.00199931 1e-05
-0.0151968 0.00204225 1e-05
-0.0149154 0.00208283 1e-05
-0.0146381 0.00212134 1e-05
-0.0143838 0.00215527 1e-05
-0.0141293 0.00218766 1e-05
-0.0138747 0.00221855 1e-05
-0.0136198 0.00224797 1e-05
-0.0132934 0.00228369 1e-05
-0.0132791 0.00228515 1e-05
-0.0132648 0.0022866 1e-05
-0.0132504 0.00228805 1e-05
-0.0132361 0.0022895 1e-05
-0.0132214 0.00229098 1e-05
-0.0129776 0.00231543 1e-05
-0.0127337 0.00233865 1e-05
-0.0124897 0.00236061 1e-05
-0.0122456 0.00238129 1e-05
-0.0120025 0.00240058 1e-05
-0.0117547 0.00241909 1e-05
-0.0115067 0.00243627 1e-05
-0.0112587 0.00245231 1e-05
-0.0110106 0.00246734 1e-05
-0.0107632 0.00248136 1e-05
-0.0105252 0.00249391 1e-05
-0.0102872 0.00250547 1e-05
-0.0100491 0.00251602 1e-05
-0.00981105 0.00252575 1e-05
-0.00957337 0.00253471 1e-05
-0.00934491 0.00254261 1e-05
-0.00911643 0.00254974 1e-05
-0.00888792 0.0025561 1e-05
-0.0086594 0.00256171 1e-05
-0.00843108 0.00256668 1e-05
-0.00821175 0.00257084 1e-05
-0.00799241 0.00257439 1e-05
-0.00777306 0.00257731 1e-05
-0.0075537 0.00257952 1e-05
-0.00733443 0.00258114 1e-05
-0.00712387 0.00258212 1e-05
-0.0069133 0.00258255 1e-05
-0.00670273 0.00258243 1e-05
-0.00649216 0.00258162 1e-05
-0.0062816 0.00258017 1e-05
-0.00607944 0.00257819 1e-05
-0.0058773 0.00257565 1e-05
-0.00567516 0.00257256 1e-05
-0.00547303 0.00256874 1e-05
-0.00527083 0.00256419 1e-05
-0.00507675 0.00255912 1e-05
-0.00488269 0.00255343 1e-05
-0.00468865 0.00254711 1e-05
-0.00449464 0.00253997 1e-05
-0.00430044 0.0025319 1e-05
-0.00411412 0.00252329 1e-05
-0.00392784 0.00251388 1e-05
-0.00374159 0.00250368 1e-05
-0.0035554 0.00249255 1e-05
-0.00336883 0.00248016 1e-05
-0.00318995 0.00246711 1e-05
-0.00301115 0.00245299 1e-05
-0.00283245 0.00243774 1e-05
-0.00265386 0.00242121 1e-05
-0.00247443 0.00240314 1e-05
-0.0023027 0.00238425 1e-05
-0.00213114 0.00236384 1e-05
-0.00195982 0.00234154 1e-05
-0.00178875 0.00231738 1e-05
-0.00161577 0.00229105 1e-05
-0.00161568 0.00229104 1e-05
-0.00161559 0.00229102 1e-05
-0.0016155 0.00229101 1e-05
-0.00161541 0.00229099 1e-05
-0.00161532 0.00229098 1e-05
-0.00145054 0.00226407 1e-05
-0.00128616 0.00223481 1e-05
-0.00112221 0.00220326 1e-05
-0.0009587 0.00216946 1e-05
-0.000791418 0.00213236 1e-05
-0.000633135 0.00209425 1e-05
-0.000475556 0.00205332 1e-05
-0.000318719 0.00200963 1e-05
-0.000162835 0.00196266 1e-05
0 0.00190951 1e-05
3.73359e-05 0.00189631 1e-05
7.45719e-05 0.00188283 1e-05
0.000111709 0.00186909 1e-05
0.00014875 0.00185508 1e-05
0.000179056 0.00184338 1e-05
0.000248922 0.00181594 1e-05
0.000318378 0.00178747 1e-05
0.000387408 0.00175799 1e-05
0.000455998 0.0017275 1e-05
0.000528387 0.00169412 1e-05
0.000634886 0.00164314 1e-05
0.000740278 0.00158991 1e-05
0.00084451 0.00153444 1e-05
0.00094762 0.00147692 1e-05
0.00101985 0.00143468 1e-05
0.00102806 0.00142973 1e-05
0.00103626 0.00142475 1e-05
0.00104444 0.00141976 1e-05
0.00105262 0.00141476 1e-05
0.00106088 0.00140968 1e-05
0.00116821 0.00134349 1e-05
0.00127404 0.00127493 1e-05
0.00137827 0.00120398 1e-05
0.00148099 0.00113084 1e-05
0.00159665 0.00104511 1e-05
0.00159683 0.00104497 1e-05
0.001597 0.00104484 1e-05
0.00159717 0.00104471 1e-05
0.00159735 0.00104457 1e-05
0.00159752 0.00104444 1e-05
0.00169217 0.000970874 1e-05
0.00178543 0.000895545 1e-05
0.0018772 0.000818418 1e-05
0.00196756 0.000739637 1e-05
0.00203794 0.000676367 1e-05
0.00205802 0.000657866 1e-05
0.00207801 0.000639277 1e-05
0.00209792 0.000620598 1e-05
0.00211777 0.000601855 1e-05
0.00213833 0.000582329 1e-05
0.00219145 0.000531522 1e-05
0.00224407 0.000480198 1e-05
0.00229618 0.00042835 1e-05
0.00234775 0.000375971 1e-05
0.00239404 0.000328255 1e-05
0.0024519 0.00026778 1e-05
0.00250913 0.000206706 1e-05
0.00256572 0.000145048 1e-05
0.00262181 8.29234e-05 1e-05
0.00268334 1.35827e-05 1e-05
0.0026857 1.08661e-05 1e-05
0.00268806 8.1486e-06 1e-05
0.00269042 5.43006e-06 1e-05
0.00269278 2.71051e-06 1e-05
0.00269513 0 1e-05
0.00275903 -7.37367e-05 1e-05
0.00282231 -0.000148005 1e-05
0.00288495 -0.000222813 1e-05
0.00294693 -0.000298173 1e-05
0.003004 -0.000368654 1e-05
0.00304971 -0.000425951 1e-05
0.00309512 -0.000483493 1e-05
0.00314022 -0.000541278 1e-05
0.00318507 -0.000599257 1e-05
0.00323259 -0.000661253 1e-05
0.00325062 -0.000685021 1e-05
0.0032686 -0.000708829 1e-05
0.00328653 -0.000732676 1e-05
0.00330441 -0.000756564 1e-05
0.00332194 -0.000780089 1e-05
0.00339008 -0.000871877 1e-05
0.00345762 -0.000964107 1e-05
0.00352454 -0.00105679 1e-05
0.00359092 -0.00114986 1e-05
0.00365378 -0.00123896 1e-05
0.00368024 -0.00127687 1e-05
0.00370663 -0.00131483 1e-05
0.00373295 -0.00135284 1e-05
0.00375921 -0.0013909 1e-05
0.00378611 -0.00142998 1e-05
0.00383008 -0.00149408 1e-05
0.00387383 -0.00155832 1e-05
0.00391737 -0.00162272 1e-05
0.00396068 -0.00168726 1e-05
0.00400282 -0.00175043 1e-05
0.00407104 -0.00185329 1e-05
0.00413885 -0.00195641 1e-05
0.00420623 -0.00205982 1e-05
0.00427332 -0.00216341 1e-05
0.00434393 -0.0022731 1e-05
0.00434997 -0.00228254 1e-05
0.004356 -0.00229199 1e-05
0.00436202 -0.00230143 1e-05
0.00436805 -0.00231088 1e-05
0.00437405 -0.0023203 1e-05
0.0044549 -0.00244725 1e-05
0.0045353 -0.00257448 1e-05
0.0046153 -0.00270197 1e-05
0.00469494 -0.00282968 1e-05
0.00477282 -0.00295498 1e-05
0.00479947 -0.00299801 1e-05
0.0048261 -0.00304106 1e-05
0.0048527 -0.00308413 1e-05
0.0048793 -0.00312721 1e-05
0.00490609 -0.0031706 1e-05
0.00496672 -0.00326881 1e-05
0.00502719 -0.0033671 1e-05
0.00508752 -0.00346549 1e-05
0.00514771 -0.00356397 1e-05
0.00520736 -0.00366161 1e-05
0.00526041 -0.00374852 1e-05
0.00531342 -0.00383547 1e-05
0.0053664 -0.00392244 1e-05
0.00541939 -0.00400939 1e-05
0.00547262 -0.0040966 1e-05
0.00551559 -0.0041669 1e-05
0.00555853 -0.00423723 1e-05
0.00560143 -0.00430757 1e-05
0.00564431 -0.00437793 1e-05
0.00568713 -0.00444811 1e-05
0.00575842 -0.00456486 1e-05
0.00582975 -0.00468158 1e-05
0.00590112 -0.00479827 1e-05
0.00597264 -0.00491488 1e-05
0.00604356 -0.00503005 1e-05
0.00607981 -0.00508869 1e-05
0.00611607 -0.00514733 1e-05
0.00615234 -0.00520596 1e-05
0.00618863 -0.00526458 1e-05
0.00622503 -0.00532326 1e-05
0.00630381 -0.00545002 1e-05
0.00638278 -0.00557667 1e-05
0.00646195 -0.0057032 1e-05
0.00654139 -0.00582955 1e-05
0.00661893 -0.00595209 1e-05
0.00666283 -0.00602101 1e-05
0.00670679 -0.0060899 1e-05
0.00675079 -0.00615875 1e-05
0.00679489 -0.00622755 1e-05
0.00683936 -0.00629671 1e-05
0.00691124 -0.00640812 1e-05
0.00698338 -0.00651935 1e-05
0.00705577 -0.00663042 1e-05
0.00712846 -0.0067413 1e-05
0.00719878 -0.00684776 1e-05
0.00726947 -0.00695402 1e-05
0.00734039 -0.00706012 1e-05
0.00741153 -0.00716608 1e-05
0.00748298 -0.00727183 1e-05
0.00755596 -0.00737909 1e-05
0.0076014 -0.00744539 1e-05
0.00764696 -0.0075116 1e-05
0.00769265 -0.00757772 1e-05
0.00773847 -0.00764374 1e-05
0.00778313 -0.00770777 1e-05
0.00790091 -0.00787574 1e-05
0.00801946 -0.00804317 1e-05
0.00813878 -0.00821004 1e-05
0.0082591 -0.0083762 1e-05
0.00837203 -0.0085301 1e-05
0.00837974 -0.00854046 1e-05
0.00838744 -0.00855082 1e-05
0.00839515 -0.00856117 1e-05
0.00840287 -0.00857152 1e-05
0.00841061 -0.00858189 1e-05
0.00852159 -0.00873053 1e-05
0.00863339 -0.00887855 1e-05
0.00874604 -0.00902594 1e-05
0.00885955 -0.00917265 1e-05
0.00896551 -0.00930775 1e-05
0.00903012 -0.00938906 1e-05
0.009095 -0.00947017 1e-05
0.00916014 -0.00955106 1e-05
0.00922558 -0.00963171 1e-05
0.00929319 -0.00971439 1e-05
0.00934728 -0.00977999 1e-05
0.00940155 -0.00984543 1e-05
0.00945602 -0.00991071 1e-05
0.00951069 -0.00997582 1e-05
0.0095636 -0.0100384 1e-05
[...]
POINT_DATA 12278
 FIELD attributes 1
U 3 12278 float
9.72339 	0.381311 	0 9.77871 	0.305049 	0 9.83405 	0.228765 	0 9.8894 	0.152465 	0 9.94476 	0.0761532 	0 10 	0 	0
10.0671 	0.375483 	0 10.0537 	0.300387 	0 10.0403 	0.225271 	0 10.0268 	0.150141 	0 10.0134 	0.0750008 	0 10 	0 	0
10.0364 	0.141572 	0 10.0291 	0.113304 	0 10.0218 	0.085089 	0 10.0145 	0.0569263 	0 10.0071 	0.0288164 	0 10 	0 	0
10.0137 	0.111519 	0 10.011 	0.089215 	0 10.0082 	0.0669108 	0 10.0055 	0.0446061 	0 10.0027 	0.0223012 	0 10 	0 	0
10.0097 	0.0196533 	0 10.0078 	0.0157227 	0 10.0058 	0.011792 	0 10.0039 	0.00786133 	0 10.0019 	0.00393065 	0 10 	0 	0
10.0102 	-0.0372875 	0 10.0082 	-0.02983 	0 10.0061 	-0.0223725 	0 10.0041 	-0.014915 	0 10.002 	-0.00745741 	0 10 	0 	0
10.0174 	-0.148997 	0 10.0139 	-0.119197 	0 10.0105 	-0.0893967 	0 10.007 	-0.0595953 	0 10.0035 	-0.0297933 	0 10 	0 	0
10.0362 	-0.265901 	0 10.029 	-0.212721 	0 10.0217 	-0.159534 	0 10.0145 	-0.106342 	0 10.0072 	-0.053146 	0 10 	0 	0
10.0563 	-0.387167 	0 10.045 	-0.309734 	0 10.0338 	-0.23228 	0 10.0225 	-0.15481 	0 10.0112 	-0.0773281 	0 10 	0 	0
8.30133 	-0.114495 	0 8.4287 	-0.091596 	0 8.55659 	-0.0686962 	0 8.68498 	-0.0457957 	0 8.81385 	-0.0228949 	0 8.94315 	0 	0
9.72339 	0.381311 	0 9.5415 	0.555241 	0 9.39671 	0.663651 	0 9.26203 	0.754271 	0 9.2183 	0.780385 	0 8.95344 	1.27614 	0 8.70578 	1.91036 	0 8.48173 	2.72184 	0 8.46724 	2.67123 	0 8.47252 	2.45986 	0 8.50117 	2.35314 	0 8.52498 	2.2443 	0 8.51221 	2.16311 	0 8.42487 	2.14738 	0 8.30214 	2.12559 	0 8.30117 	1.9821 	0 8.28715 	1.83798 	0 8.21181 	1.72569 	0 8.035 	1.67507 	0 7.86306 	1.62575 	0 7.68323 	1.56759 	0 7.50177 	1.50875 	0 7.42793 	1.45839 	0 7.36148 	1.40771 	0 7.27865 	1.34671 	0 7.22249 	1.32376 	0 7.16614 	1.3007 	0 7.10958 	1.27753 	0 7.07928 	1.2544 	0 7.05291 	1.23121 	0 6.97394 	1.13838 	0 6.88841 	1.05226 	0 6.79883 	0.980328 	0 6.71191 	0.932082 	0 6.6228 	0.883658 	0 6.55089 	0.833774 	0 6.49229 	0.787587 	0 6.44246 	0.743854 	0 6.3887 	0.699089 	0 6.31694 	0.642265 	0 6.31477 	0.64017 	0 6.3132 	0.638345 	0 6.31172 	0.636558 	0 6.31023 	0.63477 	0 6.30868 	0.632931 	0 6.27132 	0.597061 	0 6.23151 	0.560862 	0 6.18922 	0.524331 	0 6.1444 	0.487462 	0 6.10943 	0.456251 	0 6.07602 	0.420969 	0 6.04571 	0.390994 	0 6.01701 	0.36455 	0 5.99443 	0.339599 	0 5.97316 	0.315195 	0 5.95246 	0.289061 	0 5.92972 	0.262717 	0 5.91348 	0.241656 	0 5.9034 	0.222652 	0 5.89182 	0.203585 	0 5.87917 	0.183518 	0 5.86498 	0.163351 	0 5.85627 	0.143787 	0 5.85337 	0.127398 	0 5.84919 	0.110982 	0 5.84297 	0.0943469 	0 5.8355 	0.0776704 	0 5.83341 	0.058968 	0 5.83631 	0.0430938 	0 5.838 	0.0272201 	0 5.83717 	0.0119222 	0 5.83535 	-0.00344466 	0 5.83921 	-0.0225463 	0 5.84732 	-0.0400382 	0 5.85425 	-0.0574759 	0 5.85861 	-0.0735431 	0 5.86185 	-0.0895844 	0 5.87122 	-0.110973 	0 5.88468 	-0.132511 	0 5.89665 	-0.153978 	0 5.90651 	-0.173345 	0 5.91508 	-0.192642 	0 5.9294 	-0.218102 	0 5.94828 	-0.247058 	0 5.96528 	-0.275875 	0 5.98122 	-0.302107 	0 5.99552 	-0.328191 	0 6.01455 	-0.359805 	0 6.03866 	-0.40097 	0 6.06026 	-0.441891 	0 6.0826 	-0.480356 	0 6.1048 	-0.520979 	0 6.13011 	-0.567636 	0 6.15459 	-0.619709 	0 6.17872 	-0.679521 	0 6.2061 	-0.738516 	0 6.23744 	-0.811909 	0 6.26492 	-0.884766 	0 6.28857 	-0.957084 	0 6.30868 	-1.02979 	0 6.30869 	-1.02984 	0 6.30871 	-1.0299 	0 6.30873 	-1.02996 	0 6.30874 	-1.03003 	0 6.30876 	-1.03009 	0 6.33255 	-1.12727 	0 6.35109 	-1.22235 	0 6.3645 	-1.31536 	0 6.37526 	-1.41406 	0 6.38854 	-1.53825 	0 6.40634 	-1.664 	0 6.4179 	-1.78765 	0 6.40578 	-1.93017 	2.62081e-20 6.36941 	-2.07913 	5.37267e-20 6.31926 	-2.23391 	8.12289e-20 6.31105 	-2.28436 	2.3384e-20 6.29887 	-2.33169 	5.83599e-21 6.28251 	-2.37571 	3.12634e-20 6.26559 	-2.41947 	5.7311e-20 6.25125 	-2.45516 	7.91878e-20 6.22485 	-2.55102 	1.78957e-19 6.19651 	-2.64632 	2.82888e-19 6.16623 	-2.74103 	3.90954e-19 6.12008 	-2.82218 	2.74325e-19 6.06353 	-2.90252 	6.24865e-20 5.98357 	-3.02218 	4.927e-20 5.8984 	-3.13888 	3.6185e-20 5.80154 	-3.23672 	8.56915e-21 5.70027 	-3.33263 	-1.8047e-20 5.62537 	-3.39917 	-3.61822e-20 5.61622 	-3.40848 	-3.59743e-20 5.60705 	-3.41777 	-3.57515e-20 5.59779 	-3.42642 	-3.69019e-20 5.58841 	-3.43337 	-4.17075e-20 5.57888 	-3.44039 	-4.65587e-20 5.45899 	-3.5366 	-2.82903e-20 5.33377 	-3.63085 	-9.44907e-21 5.20773 	-3.7078 	1.25743e-22 5.08151 	-3.76669 	-1.86137e-22 4.93252 	-3.832 	7.48292e-23 4.93227 	-3.83214 	4.2821e-23 4.93201 	-3.83228 	1.08124e-23 4.93178 	-3.83238 	1.89815e-23 4.93155 	-3.83245 	4.76458e-23 4.93133 	-3.83253 	7.63194e-23 4.80562 	-3.88187 	1.12964e-21 4.67582 	-3.92961 	2.48737e-21 4.5489 	-3.96611 	4.21525e-21 4.43127 	-3.9832 	6.34033e-21 4.33595 	-3.99557 	8.21102e-21 4.30561 	-4.00323 	1.33578e-20 4.27506 	-4.01082 	1.85425e-20 4.24975 	-4.01253 	9.22202e-21 4.22457 	-4.01389 	-8.27907e-22 4.19828 	-4.01525 	-1.12478e-20 4.12447 	-4.02255 	-6.36194e-20 4.04948 	-4.02934 	-1.15623e-19 3.97346 	-4.03545 	-1.65812e-19 3.90929 	-4.02992 	-1.0157e-19 3.85048 	-4.02454 	-4.30498e-20 3.7729 	-4.02668 	4.17434e-21 3.69543 	-4.02594 	4.19934e-20 3.62354 	-4.01382 	3.41952e-20 3.55057 	-4.00123 	2.66678e-20 3.46852 	-3.98674 	1.86403e-20 3.46519 	-3.98632 	1.92655e-20 3.46185 	-3.9859 	1.98909e-20 3.45851 	-3.98548 	2.05164e-20 3.45536 	-3.98476 	2.10413e-20 3.4523 	-3.98392 	2.15248e-20 3.38417 	-3.9719 	1.41258e-20 3.31398 	-3.95774 	7.41767e-21 3.24257 	-3.94289 	7.0411e-22 3.17079 	-3.91583 	6.16848e-21 3.10315 	-3.88906 	1.23518e-20 3.06106 	-3.87905 	3.47254e-20 3.01866 	-3.86765 	5.06263e-20 2.97706 	-3.84869 	2.3362e-20 2.93505 	-3.8295 	-3.84546e-21 2.88985 	-3.8088 	-3.27748e-20 2.87172 	-3.80224 	-3.88792e-20 2.85352 	-3.79564 	-4.49857e-20 2.83523 	-3.78898 	-5.10945e-20 2.81703 	-3.77992 	-5.72888e-20 2.7991 	-3.7704 	-6.34016e-20 2.74571 	-3.74934 	-1.07127e-19 2.69148 	-3.72778 	-1.50973e-19 2.63668 	-3.69714 	-1.46193e-19 2.58226 	-3.65976 	-8.81873e-20 2.52974 	-3.62365 	-3.27087e-20 2.51281 	-3.61473 	2.06123e-21 2.49584 	-3.6056 	3.52288e-20 2.47997 	-3.5932 	2.99747e-20 2.46403 	-3.58076 	2.47557e-20 2.44761 	-3.56795 	1.94366e-20 2.41707 	-3.54887 	5.65511e-20 2.38627 	-3.52959 	9.35861e-20 2.35522 	-3.51011 	1.30539e-19 2.32523 	-3.4856 	1.03449e-19 2.29582 	-3.46116 	7.22992e-20 2.25889 	-3.43547 	4.24492e-20 2.22151 	-3.40946 	1.25668e-20 2.18694 	-3.3766 	-2.89968e-21 2.15213 	-3.3434 	-1.81049e-20 2.11501 	-3.30807 	-3.42094e-20 2.1113 	-3.30521 	-3.17861e-20 2.10758 	-3.30234 	-2.93655e-20 2.10387 	-3.29948 	-2.69478e-20 2.10037 	-3.29605 	-3.39982e-20 2.09688 	-3.29261 	-4.13454e-20 2.06017 	-3.26033 	-1.64596e-19 2.02444 	-3.22599 	-2.56585e-19 1.98939 	-3.18989 	-2.99653e-19 1.95715 	-3.149 	-1.93318e-19 1.92539 	-3.10877 	-8.89842e-20 1.91679 	-3.09909 	-7.78933e-20 1.90816 	-3.08939 	-6.67982e-20 1.90083 	-3.07855 	-5.6527e-20 1.89379 	-3.06744 	-4.64465e-20 1.8867 	-3.05625 	-3.62903e-20 1.86477 	-3.03087 	-1.17513e-20 1.84273 	-3.00539 	1.28092e-20 1.82114 	-2.97923 	2.99848e-20 1.80211 	-2.95025 	1.21499e-20 1.78321 	-2.92151 	-5.52157e-21 1.76982 	-2.90254 	-2.11393e-20 1.7564 	-2.88356 	-3.67453e-20 1.74516 	-2.86327 	-1.81138e-20 1.73486 	-2.84247 	1.47169e-20 1.72456 	-2.82163 	4.7654e-20 1.71223 	-2.80443 	1.21498e-20 1.69988 	-2.78722 	-2.33041e-20 1.68817 	-2.76953 	-3.49223e-20 1.67809 	-2.75068 	1.2958e-20 1.66805 	-2.73188 	6.07069e-20 1.65472 	-2.70768 	1.97466e-19 1.64142 	-2.6835 	3.34165e-19 1.6305 	-2.65856 	2.96358e-19 1.62134 	-2.63313 	1.3361e-19 1.61243 	-2.60809 	-2.78289e-20 1.60463 	-2.59473 	-5.73827e-20 1.59682 	-2.58137 	-8.69445e-20 1.58983 	-2.56767 	-8.97901e-20 1.58395 	-2.55351 	-5.62901e-20 1.57809 	-2.53935 	-2.27635e-20 1.5681 	-2.51484 	-2.46251e-20 1.55822 	-2.49042 	-2.65266e-20 1.55029 	-2.46587 	-1.93327e-20 1.54485 	-2.44118 	-5.02878e-22 1.53978 	-2.41737 	1.77461e-20 1.53314 	-2.40288 	2.97202e-20 1.52652 	-2.38842 	4.16896e-20 1.52121 	-2.37373 	4.57212e-20 1.51686 	-2.3589 	4.40979e-20 1.51253 	-2.34403 	4.24445e-20 1.5073 	-2.3243 	2.55671e-20 1.50219 	-2.30468 	8.66404e-21 1.49816 	-2.28526 	-3.13043e-21 1.49681 	-2.26622 	-1.1187e-21 1.49571 	-2.24806 	8.13901e-22 1.48874 	-2.22754 	7.6254e-20 1.48187 	-2.20712 	1.51921e-19 1.47761 	-2.18687 	1.25786e-19 1.47427 	-2.16676 	6.7806e-20 1.47105 	-2.14648 	8.99861e-21 1.46985 	-2.13594 	-2.33638e-20 1.46871 	-2.12545 	-5.56826e-20 1.46782 	-2.11512 	-8.20084e-20 1.46935 	-2.10624 	-3.64879e-20 1.47091 	-2.09767 	7.88486e-21 1.46378 	-2.06746 	4.60799e-21 1.45696 	-2.03752 	1.31335e-21 1.45619 	-2.01095 	-2.34605e-20 1.45675 	-1.98525 	-5.17369e-20 1.45936 	-1.96228 	-7.48699e-20 1.45889 	-1.96032 	-6.85328e-20 1.45842 	-1.95836 	-6.22499e-20 1.45837 	-1.95661 	-6.69935e-20 1.45832 	-1.95486 	-7.17348e-20 1.45827 	-1.9531 	-7.64864e-20 1.4564 	-1.92817 	-2.09517e-19 1.45489 	-1.90355 	-3.41814e-19 1.45412 	-1.8795 	-4.46575e-19 1.45837 	-1.85928 	-1.91185e-19 1.46274 	-1.84092 	4.70897e-20 1.46059 	-1.82602 	1.11172e-19 1.45855 	-1.81121 	1.7504e-19 1.45947 	-1.79853 	1.42336e-19 1.46052 	-1.78595 	1.09733e-19 1.46173 	-1.77312 	7.63111e-20 1.46265 	-1.76356 	6.73845e-20 1.46366 	-1.75406 	5.84798e-20 1.46474 	-1.74462 	4.95974e-20 1.46736 	-1.73644 	5.16702e-20 1.47002 	-1.72868 	5.41862e-20 1.46951 	-1.70541 	2.94961e-20 1.46935 	-1.68243 	4.74416e-21 1.47226 	-1.66187 	2.02375e-20 1.47686 	-1.64241 	4.53235e-20 1.4828 	-1.6253 	6.85543e-20 1.48279 	-1.62123 	6.74362e-20 1.48287 	-1.61724 	6.76001e-20 1.48346 	-1.61362 	7.51559e-20 1.48406 	-1.61001 	8.27097e-20 1.48468 	-1.60637 	9.03516e-20 1.48739 	-1.59063 	1.39732e-19 1.49036 	-1.57509 	1.8899e-19 1.4936 	-1.55975 	2.38122e-19 1.49878 	-1.54625 	1.68534e-19 1.50419 	-1.53407 	8.22477e-20 1.50585 	-1.51458 	1.55604e-19 1.50835 	-1.49582 	2.03703e-19 1.51297 	-1.479 	1.61854e-19 1.51794 	-1.46244 	1.20535e-19 1.52364 	-1.44494 	7.67529e-20 1.52367 	-1.44488 	7.65068e-20 1.52369 	-1.44481 	7.62606e-20 1.52371 	-1.44474 	7.60144e-20 1.52374 	-1.44468 	7.63417e-20 1.52377 	-1.44462 	7.69201e-20 1.52817 	-1.4276 	1.26575e-19 1.53298 	-1.41085 	1.74618e-19 1.53816 	-1.39436 	2.22269e-19 1.54493 	-1.37965 	1.84249e-19 1.55203 	-1.36672 	1.17121e-19 1.55536 	-1.34912 	2.03148e-19 1.55957 	-1.3324 	2.39551e-19 1.56521 	-1.31726 	1.74807e-19 1.57119 	-1.30236 	1.10279e-19 1.57755 	-1.28882 	3.78322e-20 1.57778 	-1.28782 	3.75799e-20 1.57805 	-1.28687 	3.67476e-20 1.57837 	-1.28599 	3.51841e-20 1.57869 	-1.2851 	3.36201e-20 1.57902 	-1.28421 	3.20471e-20 1.58424 	-1.27027 	-1.34608e-20 1.58975 	-1.25652 	-5.88895e-20 1.59557 	-1.24297 	-1.04236e-19 1.60227 	-1.23062 	-8.9345e-20 1.60933 	-1.2199 	-3.00475e-20 1.61378 	-1.20438 	-7.54325e-20 1.61854 	-1.18907 	-1.21231e-19 1.62461 	-1.17569 	-1.03786e-19 1.63191 	-1.16303 	-6.0935e-20 1.63994 	-1.15165 	3.2971e-22 1.64223 	-1.14482 	2.87965e-20 1.64484 	-1.13849 	2.82853e-20 1.6477 	-1.13253 	7.12268e-21 1.65063 	-1.12661 	-1.39891e-20 1.65376 	-1.12044 	-3.6102e-20 1.6574 	-1.11361 	-6.80311e-20 1.66113 	-1.10684 	-9.98486e-20 1.66495 	-1.10012 	-1.31554e-19 1.66899 	-1.09383 	-1.31113e-19 1.67323 	-1.08835 	-7.98813e-20 1.67838 	-1.0746 	-1.11918e-19 1.68441 	-1.06135 	-1.3613e-19 1.69174 	-1.04894 	-1.4556e-19 1.69992 	-1.03833 	-1.35231e-19 1.70801 	-1.02837 	-1.25242e-19 1.71379 	-1.01486 	-2.75543e-19 1.72005 	-1.00216 	-3.50276e-19 1.72693 	-0.990723 	-2.96204e-19 1.73408 	-0.979443 	-2.4264e-19 1.74238 	-0.969366 	-1.16074e-19 1.74448 	-0.965029 	-8.25491e-20 1.74673 	-0.961142 	-8.47646e-20 1.74904 	-0.95739 	-9.66302e-20 1.75138 	-0.953655 	-1.08448e-19 1.75385 	-0.949777 	-1.20724e-19 1.75871 	-0.942419 	-1.24334e-19 1.7637 	-0.935127 	-1.27917e-19 1.7688 	-0.927903 	-1.31472e-19 1.77404 	-0.920968 	-1.29661e-19 1.77938 	-0.915201 	-1.05266e-19 1.78543 	-0.903269 	-1.32876e-19 1.79248 	-0.891912 	-1.44791e-19 1.80042 	-0.881059 	-1.43563e-19 1.80874 	-0.871992 	-1.02966e-19 1.81702 	-0.863461 	-6.09408e-20 1.82363 	-0.85177 	-1.649e-19 1.83051 	-0.840244 	-2.6694e-19 1.83767 	-0.830552 	-2.25625e-19 1.84588 	-0.821446 	-1.27944e-19 1.85456 	-0.813 	4.40317e-23 1.86118 	-0.802447 	1.42282e-22 1.86795 	-0.793526 	1.07679e-22 1.87492 	-0.784748 	6.90554e-23 1.88208 	-0.77607 	3.00036e-23 1.89045 	-0.766304 	-1.49472e-23 1.89083 	-0.765885 	7.14691e-22 1.89122 	-0.765466 	1.44385e-21 1.8916 	-0.765047 	2.17252e-21 1.89198 	-0.764629 	2.90071e-21 1.89235 	-0.764292 	4.2543e-22 1.89983 	-0.754838 	-2.52989e-20 1.90762 	-0.745554 	-4.7168e-20 1.91564 	-0.736382 	-6.88588e-20 1.92387 	-0.727333 	-8.98822e-20 1.93178 	-0.720345 	-3.11981e-20 1.93866 	-0.710389 	-2.11276e-20 1.94623 	-0.700872 	-1.39253e-20 1.95462 	-0.691889 	-1.04121e-20 1.96279 	-0.684617 	-1.59839e-20 1.97093 	-0.677749 	-2.2449e-20 1.97824 	-0.668042 	5.39422e-20 1.98577 	-0.658437 	1.30446e-19 1.9932 	-0.650349 	1.32358e-19 2.00151 	-0.643403 	6.57221e-20 2.00986 	-0.636661 	1.63202e-22 2.01757 	-0.627208 	9.70466e-23 2.0251 	-0.618832 	-1.11843e-20 2.03252 	-0.611291 	-3.10299e-20 2.04012 	-0.603829 	-5.08517e-20 2.04859 	-0.59719 	-6.38844e-20 2.0555 	-0.589487 	-1.06442e-19 2.06202 	-0.582979 	-1.09997e-19 2.06868 	-0.576528 	-1.13611e-19 2.07548 	-0.570135 	-1.17284e-19 2.08345 	-0.562857 	-1.21571e-19 2.08421 	-0.562189 	-1.22759e-19 2.08498 	-0.561522 	-1.23947e-19 2.08574 	-0.560855 	-1.25134e-19 2.08651 	-0.560189 	-1.26321e-19 2.08722 	-0.559648 	-1.22297e-19 2.09468 	-0.552348 	-9.43243e-20 2.10237 	-0.54519 	-6.50811e-20 2.11024 	-0.538102 	-3.58758e-20 2.11828 	-0.531082 	-6.70851e-21 2.12555 	-0.525592 	1.79217e-22 2.1327 	-0.517826 	6.74858e-20 2.14053 	-0.510844 	8.64042e-20 2.14854 	-0.503952 	1.03542e-19 2.15619 	-0.497875 	8.43312e-20 2.16321 	-0.492957 	1.4904e-20 2.17059 	-0.485434 	-5.50355e-20 2.1782 	-0.47806 	-1.18744e-19 2.18627 	-0.47142 	-1.35e-19 2.19319 	-0.466555 	-6.72695e-20 2.20017 	-0.461774 	-7.24901e-23 2.20775 	-0.454494 	-3.95889e-23 2.21551 	-0.447272 	-6.8599e-24 2.22263 	-0.441408 	0 2.22947 	-0.436691 	0 2.23638 	-0.432048 	0 2.24413 	-0.425009 	0 2.2518 	-0.418291 	0 2.2583 	-0.413056 	0 2.265 	-0.40828 	-1.01486e-20 2.2718 	-0.403775 	-2.51704e-20 2.27969 	-0.396976 	-6.23487e-21 2.2866 	-0.391339 	-6.35241e-21 2.2931 	-0.386288 	-1.58183e-20 2.29972 	-0.381302 	-2.67407e-20 2.30639 	-0.376935 	-6.6482e-20 2.3141 	-0.370622 	-2.84759e-20 2.32045 	-0.365721 	-3.02653e-20 2.32692 	-0.360853 	-3.20265e-20 2.33351 	-0.356018 	-3.37597e-20 2.3401 	-0.351501 	-4.64697e-20 2.34634 	-0.346638 	-3.69134e-20 2.35195 	-0.342423 	-3.83641e-20 2.35766 	-0.338232 	-3.97933e-20 2.36345 	-0.334065 	-4.12012e-20 2.3703 	-0.329245 	-4.28146e-20 2.37082 	-0.328889 	-4.26963e-20 2.37134 	-0.328534 	-4.25782e-20 2.37187 	-0.328178 	-4.24602e-20 2.37239 	-0.327823 	-4.23424e-20 2.37285 	-0.327522 	-4.25199e-20 2.37901 	-0.322932 	-4.9212e-20 2.38527 	-0.318396 	-5.37611e-20 2.39165 	-0.313888 	-5.82331e-20 2.39813 	-0.309408 	-6.26287e-20 2.40377 	-0.30568 	-3.89661e-20 2.4101 	-0.300964 	-7.51637e-20 2.41626 	-0.296604 	-8.72968e-20 2.42253 	-0.292269 	-9.9371e-20 2.4289 	-0.28796 	-1.11387e-19 2.43354 	-0.284973 	-7.13054e-20 2.44012 	-0.280188 	-1.18584e-19 2.44616 	-0.276001 	-1.21111e-19 2.4523 	-0.271837 	-1.23591e-19 2.45819 	-0.267932 	-1.19e-19 2.46216 	-0.265369 	-7.53455e-20 2.46877 	-0.260752 	-1.17874e-19 2.47494 	-0.256547 	-1.28013e-19 2.48094 	-0.252551 	-1.22408e-19 2.48588 	-0.24929 	-9.48002e-20 2.48961 	-0.246831 	-4.31991e-20 2.4962 	-0.242418 	4.31575e-20 2.50259 	-0.238198 	1.03856e-19 2.50843 	-0.234368 	1.09352e-19 2.51241 	-0.231679 	5.03686e-20 2.5159 	-0.229324 	-2.66965e-20 2.52244 	-0.22511 	-1.75932e-20 2.52908 	-0.220915 	-8.49973e-21 2.5346 	-0.21733 	8.66908e-21 2.53778 	-0.215063 	2.59573e-20 2.54101 	-0.212808 	4.32203e-20 2.54749 	-0.20879 	-4.33232e-20 2.55407 	-0.204788 	-1.29879e-19 2.55906 	-0.201566 	-1.41244e-19 2.56198 	-0.199399 	-7.10829e-20 2.56495 	-0.197244 	-1.0206e-21 2.57135 	-0.193416 	-1.07031e-22 2.57786 	-0.189604 	7.85747e-22 2.58236 	-0.186718 	-1.56704e-20 2.58502 	-0.18465 	-4.94167e-20 2.58773 	-0.182591 	-8.31381e-20 2.59404 	-0.17895 	-4.76827e-20 2.60045 	-0.175323 	-1.22431e-20 2.60452 	-0.172747 	-8.54657e-21 2.60691 	-0.170774 	-2.593e-20 2.60935 	-0.16881 	-4.32978e-20 2.61557 	-0.165352 	-2.59873e-20 2.62187 	-0.161908 	-8.70986e-21 2.62548 	-0.159631 	-9.45428e-21 2.62767 	-0.157734 	-2.60534e-20 2.62984 	-0.155863 	-4.33787e-20 2.63595 	-0.152583 	-1.64885e-19 2.64159 	-0.149528 	-2.61792e-19 2.64504 	-0.147369 	-2.57101e-19 2.64731 	-0.14549 	-1.64746e-19 2.64921 	-0.143709 	-4.33592e-20 2.6552 	-0.140602 	-2.59813e-20 2.66021 	-0.137895 	-8.62105e-21 2.66349 	-0.135851 	8.70882e-21 2.66584 	-0.134005 	2.13076e-20 2.66747 	-0.132312 	3.02496e-20 2.67334 	-0.129374 	9.13176e-20 2.67774 	-0.126976 	1.18692e-19 2.68085 	-0.125044 	1.17018e-19 2.68329 	-0.123241 	9.21094e-20 2.68467 	-0.121635 	3.16736e-20 2.69041 	-0.11886 	2.32317e-20 2.69421 	-0.116737 	1.4806e-20 2.69716 	-0.114913 	6.38533e-21 2.69969 	-0.113164 	0 2.70081 	-0.111642 	0 2.70642 	-0.109025 	0 2.70966 	-0.107147 	1.47188e-20 2.71244 	-0.105428 	3.25492e-20 2.71507 	-0.10374 	5.03643e-20 2.71594 	-0.102299 	6.81061e-20 2.72141 	-0.0998359 	1.90102e-19 2.72413 	-0.0981733 	1.93622e-19 2.72674 	-0.096555 	1.91095e-19 2.7294 	-0.0949399 	1.88618e-19 2.73008 	-0.0935726 	7.02129e-20 2.73522 	-0.0913097 	5.31988e-20 2.73763 	-0.0897861 	3.6238e-20 2.74008 	-0.0882652 	1.92689e-20 2.74258 	-0.0867471 	2.29173e-21 2.74326 	-0.0854312 	1.46997e-20 2.74795 	-0.0833851 	-4.34152e-24 2.75021 	-0.0819557 	-2.98874e-23 2.7525 	-0.0805287 	-5.5423e-23 2.75484 	-0.0791042 	-8.09485e-23 2.75552 	-0.0778438 	6.38978e-21 2.75979 	-0.0759928 	-5.08117e-20 2.7619 	-0.074654 	-4.95126e-20 2.76404 	-0.0733174 	-4.82409e-20 2.76622 	-0.0719828 	-4.69966e-20 2.7669 	-0.0707812 	-5.64437e-21 2.77077 	-0.0691056 	8.55946e-23 2.77273 	-0.0678539 	6.04885e-23 2.77472 	-0.066604 	3.53727e-23 2.77675 	-0.0653559 	1.02471e-23 2.77743 	-0.064215 	0 2.78094 	-0.0626974 	1.1189e-20 2.78275 	-0.0615292 	3.75123e-20 2.7846 	-0.0603625 	6.38269e-20 2.78648 	-0.0591974 	9.01327e-20 2.78715 	-0.0581184 	1.07494e-19 2.79032 	-0.056743 	1.73102e-19 2.792 	-0.0556548 	1.72024e-19 2.7937 	-0.0545678 	1.70973e-19 2.79544 	-0.0534821 	1.6995e-19 2.7961 	-0.0524655 	1.02483e-19 2.79896 	-0.0512183 	8.75799e-20 2.8005 	-0.0502064 	5.31465e-20 2.80207 	-0.0491956 	1.87077e-20 2.80367 	-0.0481859 	-1.57366e-20 2.80431 	-0.0472315 	-4.66903e-20 2.80688 	-0.0461 	-9.02145e-20 2.8083 	-0.045161 	-8.90065e-20 2.80974 	-0.0442229 	-8.78324e-20 2.81122 	-0.0432857 	-8.66921e-20 2.81182 	-0.0423928 	-3.70495e-20 2.81414 	-0.0413659 	-4.95376e-20 2.81544 	-0.0404963 	-3.17169e-20 2.81676 	-0.0396275 	-1.39142e-20 2.8181 	-0.0387594 	3.87077e-21 2.81868 	-0.0379268 	4.31038e-20 2.82076 	-0.0369945 	4.98612e-20 2.82194 	-0.0361909 	6.73322e-20 2.82315 	-0.035388 	8.47949e-20 2.82438 	-0.0345857 	1.02249e-19 2.82491 	-0.0338118 	1.22065e-19 2.82678 	-0.0329653 	1.4623e-19 2.82786 	-0.0322244 	1.37008e-19 2.82895 	-0.031484 	1.27806e-19 2.83007 	-0.0307442 	1.18626e-19 2.83056 	-0.0300272 	8.16879e-20 2.83224 	-0.0292586 	5.80644e-20 2.83321 	-0.0285771 	3.23163e-20 2.8342 	-0.027896 	6.56638e-21 2.83522 	-0.0272153 	-1.91854e-20 2.83565 	-0.0265533 	-4.10461e-20 2.83717 	-0.0258555 	-5.61676e-20 2.83805 	-0.0252301 	-3.83937e-20 2.83894 	-0.0246051 	-2.06458e-20 2.83985 	-0.0239805 	-2.92394e-21 2.84023 	-0.0233711 	4.84833e-20 2.84161 	-0.0227379 	1.02325e-19 2.84239 	-0.0221655 	1.10005e-19 2.84319 	-0.0215935 	1.17729e-19 2.84401 	-0.0210217 	1.25497e-19 2.84433 	-0.0204626 	8.86218e-20 2.84558 	-0.0198884 	7.17982e-20 2.84628 	-0.019366 	6.32545e-20 2.847 	-0.0188438 	5.47067e-20 2.84773 	-0.0183218 	4.61548e-20 2.84798 	-0.0178105 	3.76056e-20 2.84913 	-0.0172903 	1.44053e-20 2.84975 	-0.0168148 	1.4753e-20 2.85038 	-0.0163395 	1.50781e-20 2.85103 	-0.0158644 	1.53805e-20 2.85122 	-0.0153984 	4.14741e-20 2.85227 	-0.0149277 	3.98573e-20