# Region type :   patch OUTLET
# Faces  :        30
# Area   :        9.0000006132e-07
# Time            	areaAverage(p)
903               	1.6488877688e+02
