/*--------------------------------*- C++ -*----------------------------------*\
  =========                 |
  \\      /  F ield         | OpenFOAM: The Open Source CFD Toolbox
   \\    /   O peration     | Website:  https://openfoam.org
    \\  /    A nd           | Version:  8
     \\/     M anipulation  |
\*---------------------------------------------------------------------------*/
FoamFile
{
    version     2.0;
    format      ascii;
    class       volScalarField;
    location    "903";
    object      T;
}
// * * * * * * * * * * * * * * * * * * * * * * * * * * * * * * * * * * * * * //

dimensions      [0 0 0 1 0 0 0];

internalField   nonuniform List<scalar> 
6300
(
481.3945603
473.2346751
469.3012704
467.3235517
466.3951843
466.0198101
465.8950151
465.8617763
465.8548414
465.8537956
465.8537658
465.8538582
465.8539474
465.8540217
465.8540822
465.8541313
465.8541707
465.8542021
465.8542268
465.8542461
465.8542606
465.8542713
465.8542786
465.854283
465.8542852
465.8542876
465.8543046
465.8544798
465.8587179
466.1225406
487.0956492
478.721652
472.9028149
469.2182477
467.2118393
466.3078771
465.9789765
465.8837698
465.8620946
465.8583276
465.8579356
465.8580219
465.8581418
465.8582443
465.8583273
465.8583936
465.8584456
465.8584857
465.8585159
465.8585378
465.8585528
465.858562
465.8585663
465.8585665
465.8585642
465.8585653
465.858609
465.8591517
465.8714279
466.3968698
488.762317
481.1646415
475.0251802
470.6243408
467.9496355
466.6160954
466.0824531
465.913351
465.8712969
465.8632259
465.8621584
465.8621913
465.8623358
465.8624655
465.8625709
465.8626545
465.8627195
465.862769
465.8628053
465.8628308
465.8628471
465.8628558
465.8628581
465.8628553
465.86285
465.8628533
465.8629458
465.8641332
465.8881125
466.6718236
489.3977666
482.3924917
476.3124568
471.6282574
468.5603452
466.9081645
466.1931984
465.9481792
465.8822839
465.8685439
465.8664667
465.8663862
465.8665449
465.8666985
465.8668239
465.8669229
465.8669995
465.8670571
465.8670987
465.867127
465.8671441
465.8671519
465.8671521
465.8671462
465.8671383
465.8671473
465.8673212
465.8695111
465.9087644
466.9473734
489.7025264
483.0818453
477.1299201
472.344701
469.0483417
467.1684744
466.3026805
465.9858628
465.8946876
465.8742684
465.8708683
465.8706085
465.8707694
465.8709432
465.8710862
465.8711988
465.8712852
465.8713495
465.8713952
465.8714254
465.8714426
465.871449
465.8714465
465.8714374
465.8714276
465.8714477
465.87175
465.8753796
465.9334037
467.2234994
489.8735689
483.5034013
477.6718809
472.8617282
469.4328883
467.3927837
466.4057733
466.0244034
465.9080762
465.8803527
465.8753644
465.8748594
465.8750093
465.8751996
465.8753579
465.875482
465.8755766
465.8756462
465.8756949
465.875726
465.8757424
465.8757467
465.8757412
465.8757288
465.8757182
465.8757576
465.8762516
465.8818346
465.9620506
467.5001859
489.9794029
483.777273
478.0438196
473.2398196
469.7345318
467.5823496
466.4998507
466.0623168
465.9220322
465.8867318
465.8799515
465.8791397
465.8792649
465.8794677
465.879639
465.8797727
465.8798737
465.8799472
465.8799976
465.8800285
465.8800435
465.8800451
465.8800362
465.8800206
465.8800108
465.8800808
465.8808483
465.888972
465.9947253
467.7774189
490.0488517
483.9625375
478.3056146
473.5195514
469.9709926
467.7407086
466.5839245
466.0986006
465.9361943
465.8933328
465.8846224
465.8834496
465.8835362
465.8837475
465.8839293
465.8840708
465.8841766
465.8842525
465.8843033
465.8843332
465.8843458
465.8843442
465.8843315
465.8843128
465.8843062
465.8844224
465.8855656
465.8968883
466.0314486
468.0551851
490.0959842
484.0909694
478.4929171
473.72824
470.1564267
467.8720333
466.6579859
466.1326425
465.9502726
465.9000841
465.8893675
465.8877889
465.8878235
465.8880391
465.8882291
465.8883763
465.8884854
465.8885623
465.8886123
465.88864
465.8886494
465.8886439
465.8886271
465.8886057
465.8886056
465.8887884
465.8904321
465.9056803
466.0722412
468.3334717
490.1284656
484.1809804
478.6279388
473.8845483
470.3018003
467.9803728
466.722562
466.1641204
465.9640485
465.9069202
465.8941756
465.8921567
465.8921269
465.8923425
465.8925384
465.8926895
465.8928
465.8928764
465.8929245
465.892949
465.8929544
465.8929443
465.8929231
465.8928995
465.8929105
465.8931862
465.8954793
465.9154456
466.1171239
468.6122657
490.1508272
484.2439109
478.7251015
474.0014762
470.415524
468.0693514
466.7784387
466.192916
465.9773676
465.9137844
465.8990357
465.8965523
465.8964467
465.896658
465.8968574
465.8970103
465.8971207
465.8971952
465.89724
465.8972603
465.8972607
465.8972455
465.8972196
465.8971947
465.8972229
465.8976244
465.900742
465.926282
466.1661173
468.8915545
490.1659209
484.2871063
478.7941184
474.0882693
470.5040483
468.1420877
466.8264952
466.2190469
465.9901282
465.9206304
465.9039367
465.9009743
465.900783
465.9009859
465.9011862
465.9013391
465.9014475
465.9015186
465.9015588
465.9015738
465.9015684
465.9015473
465.9015165
465.9014916
465.9015449
465.9021133
465.9062578
465.9382878
466.219242
469.1713247
490.1756325
484.315528
478.8417471
474.1516402
470.5723477
468.2012115
466.8676116
466.2426164
466.0022711
465.9274211
465.9088688
465.9054215
465.9051361
465.9053263
465.905525
465.9056758
465.9057805
465.9058466
465.905881
465.9058895
465.9058773
465.9058497
465.9058139
465.9057909
465.9058796
465.9066645
465.9120676
465.9515618
466.2765186
469.4515626
490.1812614
484.3326482
478.8728255
474.1965597
470.6242896
468.2489199
466.9026205
466.2637789
466.0137694
465.9341291
465.9138231
465.9098925
465.9095061
465.9096795
465.909874
465.9100206
465.9101198
465.9101794
465.9102065
465.9102074
465.9101875
465.9101527
465.9101119
465.9100932
465.9102302
465.9112917
465.9182153
465.9662033
466.3379678
469.7322541
490.183734
484.3409732
478.8909066
474.2267776
470.6629099
468.2870415
466.9322846
466.2827149
466.0246199
465.9407345
465.9187921
465.9143862
465.9138932
465.9140458
465.9142334
465.9143736
465.9144656
465.914517
465.9145354
465.9145273
465.9144988
465.9144561
465.9144105
465.9143994
465.9146012
465.9160101
465.9247481
465.9823123
466.40361
470.0133844
490.1837306
484.3423601
478.8986592
474.2451715
470.6906156
468.317098
466.9572893
466.2996157
466.0348367
465.9472245
465.9237698
465.9189014
465.9182974
465.9184254
465.9186034
465.9187351
465.9188177
465.9188593
465.9188675
465.9188493
465.918811
465.9187598
465.9187099
465.9187108
465.9189974
465.9208371
465.931716
465.9999889
466.4734658
470.294938
490.181764
484.3382181
478.898129
474.2539854
470.7093343
468.3403584
466.9782429
466.3146724
466.0444457
465.9535916
465.9287513
465.923437
465.9227189
465.9228186
465.9229842
465.923105
465.9231764
465.9232063
465.9232029
465.9231732
465.923124
465.9230638
465.9230103
465.9230289
465.9234248
465.9257922
465.9391725
466.0193342
466.5475558
470.5768987
490.1782292
484.3296383
478.8909123
474.2549937
470.7206246
468.357884
466.995682
466.32807
466.0534807
465.959833
465.933733
465.9279922
465.9271579
465.9272256
465.9273759
465.9274835
465.9275416
465.927558
465.9275413
465.9274987
465.9274377
465.9273678
465.9273119
465.9273555
465.9278902
465.9308969
465.947174
466.0404493
466.6259002
470.8592496
490.1734368
484.3174816
478.8782751
474.2496188
470.7257586
468.3705664
467.0100773
466.3399836
466.0619801
465.9659493
465.9387122
465.9325662
465.9316145
465.9316467
465.9317788
465.9318707
465.9319133
465.9319144
465.9318826
465.9318257
465.9317517
465.9316718
465.9316153
465.9316929
465.9324018
465.9361752
465.9557801
466.0634363
466.7085195
471.1419729
490.1676352
484.3024375
478.8612358
474.2390139
470.725783
468.3791574
467.0218413
466.3505761
466.0699845
465.9719439
465.9436874
465.9371587
465.9360889
465.9360821
465.9361929
465.9362666
465.9362915
465.9362752
465.9362267
465.936154
465.9360658
465.9359757
465.9359211
465.936044
465.9369688
465.9416535
465.9650535
466.0883976
466.7954339
471.42505
490.1610262
484.285067
478.840624
474.2241242
470.7215664
468.3842935
467.0313348
466.3599977
466.0775357
465.9778222
465.9486577
465.9417691
465.9405811
465.940532
465.9406185
465.9406713
465.9406761
465.9406405
465.9405734
465.9404834
465.9403799
465.9402796
465.9402299
465.940412
465.9416018
465.9473607
465.9750601
466.115436
466.8866635
471.7084614
490.1537759
484.2658314
478.817123
474.2057313
470.7138343
468.3865162
467.0388731
466.3683858
466.084675
465.9835911
465.9536231
465.9463974
465.9450914
465.9449966
465.9450556
465.9450848
465.9450671
465.9450099
465.9449224
465.9448134
465.9446938
465.9445835
465.944543
465.944801
465.9463128
465.9533284
465.9858689
466.1446551
466.9822284
471.9921865
490.1460227
484.2451145
478.7913011
474.1844875
470.7031965
468.3862875
467.0447324
466.3758654
466.0914424
465.9892585
465.958584
465.9510434
465.9496199
465.9494762
465.9495045
465.9495071
465.9494644
465.9493834
465.9492735
465.949144
465.9490071
465.9488875
465.9488617
465.9492157
465.9511155
465.9595908
465.9975523
466.176159
467.0821484
472.2762038
490.1378832
484.2232389
478.7636348
474.1609403
470.6901687
468.3840031
467.0491542
466.3825494
466.0978765
465.9948328
465.9635413
465.9557072
465.9541669
465.953971
465.953965
465.9539382
465.9538679
465.9537608
465.9536263
465.9534747
465.9533197
465.9531918
465.9531875
465.9536616
465.9560252
465.9661853
466.0101856
466.2100522
467.1864433
472.5604909
490.1294561
484.2004772
478.7345267
474.1355525
470.6751888
468.3800028
467.05235
466.38854
466.1040135
466.000323
465.9684963
465.960389
465.9587324
465.958481
465.9584374
465.9583781
465.9582774
465.9581417
465.9579807
465.9578052
465.9576314
465.957497
465.9575226
465.9581453
465.961059
465.973152
466.0238473
466.2464399
467.2951325
472.8450241
490.1208258
484.1770612
478.7043182
474.1087171
470.6586304
468.3745795
467.0545052
466.393929
466.1098878
466.005738
465.9734506
465.9650892
465.9633169
465.9630064
465.9629217
465.9628266
465.9626927
465.9625259
465.9623362
465.9621353
465.9619421
465.9618035
465.9618694
465.962674
465.9662362
465.9805342
466.0386194
466.2854279
467.4082353
473.1297787
490.1120649
484.1531897
478.6733008
474.0807689
470.6408127
468.3679858
467.055782
466.3987989
466.1155313
466.0110869
465.9784059
465.969808
465.9679204
465.9675475
465.9674179
465.9672837
465.9671137
465.9669132
465.9666925
465.9664645
465.9662517
465.9661121
465.9662309
465.9672565
465.9715779
465.9883785
466.0545868
466.3271225
467.5257707
473.4147288
490.1032359
484.1290326
478.6417234
474.0519938
470.6220093
468.3604398
467.056323
466.4032237
466.1209735
466.0163784
465.9833643
465.974546
465.9725431
465.9721043
465.971926
465.9717493
465.97154
465.9713031
465.9710492
465.9707927
465.9705603
465.9704239
465.9706108
465.9719024
465.9771076
465.9967345
466.0718378
466.3716307
467.6477576
473.6998474
490.0943927
484.104736
478.6097989
474.0226362
470.6024548
468.35213
467.0562527
466.4072694
466.1262417
466.0216211
465.9883277
465.9793036
465.9771854
465.9766769
465.976446
465.9762231
465.9759714
465.9756953
465.9754059
465.9751193
465.9748679
465.97474
465.9750133
465.976623
465.9828511
466.0056557
466.090464
466.4190601
467.7742145
473.985106
490.0855819
484.0804249
478.5777091
473.9929048
470.58235
468.3432193
467.0556801
466.410995
466.1313611
466.0268233
465.9932982
465.9840814
465.9818475
465.9812654
465.9809778
465.9807051
465.9804076
465.9800894
465.9797622
465.9794442
465.9791748
465.9790621
465.9794433
465.9814308
465.9888368
466.0151988
466.1105603
466.4695189
467.9051594
474.270475
490.0768434
484.0562063
478.5456087
473.9629771
470.5618667
468.3338478
467.0547006
466.4144531
466.1363546
466.0319926
465.9982781
465.98888
465.9865294
465.9858698
465.9855212
465.9851948
465.9848481
465.9844849
465.9841175
465.9837672
465.9834813
465.9833922
465.9839066
465.9863399
465.9950959
466.0254244
466.1322249
466.5231162
468.0406103
474.5559236
490.0682116
484.0321704
478.5136283
473.9330031
470.5411506
468.324136
467.053397
466.4176901
466.141243
466.0371364
466.0032694
465.9936999
465.9912316
465.9904901
465.9900762
465.9896921
465.9892927
465.9888813
465.9884715
465.9880879
465.987788
465.9877326
465.98841
465.9913664
466.0016622
466.0363967
466.1555595
466.5799616
468.1805846
474.8414193
490.0597153
484.0083926
478.4818766
473.9031082
470.5203248
468.3141864
467.051841
466.4207471
466.1460452
466.0422618
466.0082742
465.9985418
465.995954
465.9951264
465.9946426
465.9941966
465.9937407
465.9932782
465.9928237
465.9924063
465.9920956
465.9920864
465.9929612
465.9965281
466.0085728
466.0481842
466.1806691
466.6401657
468.3250997
475.1269284
490.0513783
483.9849344
478.450442
473.8733949
470.499491
468.3040855
467.0500941
466.4236602
466.1507783
466.0473751
466.0132945
466.0034062
466.0006969
465.9997786
465.99922
465.9987078
465.9981918
465.9976749
465.9971736
465.9967222
465.9964051
465.996457
465.9975691
466.0018448
466.0158678
466.0608591
466.2076624
466.7038396
468.4741722
475.4124159
490.0432194
483.9618435
478.4193936
473.8439452
470.4787322
468.2939051
467.0482087
466.4264607
466.1554574
466.0524823
466.0183322
466.0082937
466.0054603
466.0044464
466.0038082
466.0032253
466.0026452
466.0020708
466.0015208
466.0010357
466.0007177
466.0008485
466.0022439
466.0073387
466.0235909
466.0744981
466.2366516
466.7710957
468.6278183
475.6978449
490.035253
483.9391549
478.3887821
473.8148199
470.4581124
468.2837031
467.0462283
466.4291754
466.1600959
466.0575887
466.0233892
466.0132048
466.0102443
466.0091297
466.0084068
466.0077485
466.0071003
466.0064652
466.0058646
466.005347
466.0050352
466.0052658
466.0069971
466.0130342
466.0317894
466.0891825
466.2677527
466.8420472
468.7860546
475.9831773
490.0274881
483.9168894
478.358639
473.7860605
470.4376786
468.2735241
467.0441881
466.431827
466.1647055
466.0626993
466.028467
466.0181399
466.0150489
466.0138282
466.0130152
466.0122768
466.0115564
466.0108575
466.0102048
466.0096563
466.0093595
466.0097145
466.0118419
466.0189586
466.0405143
466.1049979
466.3010855
466.9168082
468.9488963
476.2683734
490.0199287
483.8950541
478.3289766
473.7576875
470.4174596
468.2633997
467.0421153
466.4344337
466.1692961
466.0678183
466.0335673
466.0230993
466.0198739
466.0185416
466.0176329
466.0168094
466.0160126
466.0152468
466.0145409
466.013964
466.0136931
466.0142014
466.0167932
466.0251418
466.0498209
466.1220349
466.3367739
466.9954944
469.1163588
476.553392
490.012573
483.87364
478.2997855
473.7297002
470.3974657
468.2533481
467.0400287
466.4370099
466.1738758
466.0729493
466.0386911
466.0280834
466.024719
466.0232691
466.0222591
466.0213454
466.020468
466.0196324
466.0188724
466.0182709
466.0180389
466.0187341
466.0218677
466.031617
466.0597688
466.1403893
466.3749458
467.0782224
469.2884571
476.8381901
490.0054122
483.8526207
478.2710335
473.7020736
470.3776877
468.2433736
467.037939
466.4395653
466.178451
466.0780953
466.0438396
466.033092
466.029584
466.0280103
466.0268928
466.0258838
466.0249215
466.0240133
466.023199
466.0225778
466.0224005
466.0233215
466.0270843
466.0384205
466.0704223
466.1601623
466.4157338
467.1651107
469.465206
477.1227231
489.99843
483.8319489
478.2426603
473.6747562
470.3580943
468.2334655
467.0358475
466.4421053
466.1830259
466.0832586
466.0490133
466.0381251
466.034468
466.0327641
466.0315331
466.0304233
466.029372
466.0283886
466.0275205
466.026886
466.0267823
466.0279739
466.0324643
466.0455925
466.0818506
466.1814606
466.4592747
467.2562791
469.6466196
477.4069451
489.9916004
483.8115525
478.2145741
473.6476648
470.3386293
468.2235957
467.0337459
466.4446302
466.1876025
466.0884402
466.0542126
466.0431822
466.0393703
466.0375294
466.0361784
466.0349624
466.033818
466.0327572
466.0318366
466.0311971
466.0311893
466.032703
466.0380315
466.0531771
466.0941286
466.2043972
466.5057106
467.3518496
469.8327123
477.6908082
489.9848858
483.7913288
478.1866431
473.6206783
470.3192062
468.2137165
467.0316144
466.4471345
466.1921805
466.0936406
466.0594371
466.0482625
466.0442898
466.0423047
466.0408273
466.0394996
466.0382579
466.037118
466.0361472
466.0355129
466.0356275
466.0375224
466.0438127
466.0612229
466.1073368
466.2290914
466.5551888
467.4519462
470.023498
477.974263
489.9782332
483.7711361
478.1586864
473.5936285
470.2997025
468.2037563
467.0294197
466.4496064
466.1967565
466.0988587
466.0646859
466.0533648
466.0492246
466.0470882
466.0454776
466.0440328
466.04269
466.0414698
466.0404524
466.0398361
466.0401041
466.0424477
466.0498379
466.0697831
466.1215623
466.2556698
466.6078623
467.5566953
470.2189904
478.2572584
489.97157
483.7507827
478.1304597
473.5662881
470.2799502
468.1936144
467.0271126
466.4520259
466.2013236
466.1040919
466.0699573
466.0584871
466.0541728
466.0518774
466.050127
466.0485596
466.0471123
466.0458113
466.0447524
466.0441696
466.0446275
466.0474966
466.0561409
466.0789167
466.1368988
466.2842663
466.6638903
467.6662263
470.4192038
478.5397419
489.9647974
483.7300102
478.1016355
473.5383519
470.2597229
468.1831532
467.0246235
466.4543636
466.2058709
466.1093357
466.0752485
466.0636268
466.0591315
466.0566696
466.0547724
466.0530772
466.0515224
466.0501412
466.0490476
466.0485175
466.0492076
466.0526897
466.0627596
466.0886883
466.1534481
466.3150232
466.7234385
467.7806712
470.624152
478.8216593
489.9577805
483.7084699
478.0717745
473.5094127
470.238718
468.1721873
467.0218576
466.4565781
466.2103819
466.1145832
466.0805553
466.0687802
466.064097
466.0614608
466.0594103
466.0575824
466.0559177
466.0544581
466.0533389
466.0528843
466.053856
466.0580504
466.0697365
466.0991694
466.17132
466.3480917
466.7866804
467.9001661
470.8338492
479.1029549
489.9503333
483.6856873
478.0402836
473.4789228
470.2165303
468.1604687
467.0186867
466.4586122
466.2148335
466.1198242
466.0858717
466.0739423
466.0690644
466.0662463
466.064036
466.062071
466.060295
466.0587603
466.0576273
466.0572759
466.0585867
466.0636057
466.0771198
466.1104388
466.1906341
466.383633
466.8537972
468.0248506
471.0483095
479.3835713
489.9421979
483.6610084
478.0063519
473.44614
470.1926141
468.1476644
467.0149391
466.4603889
466.2191936
466.1250446
466.0911892
466.0791064
466.0740274
466.0710203
466.0686443
466.0665386
466.064651
466.0630464
466.0619147
466.0616996
466.0634158
466.0693868
466.0849637
466.1225843
466.2115201
466.4218195
466.9249795
468.1548691
471.2675475
479.66345
489.9329992
483.6335064
477.9688473
473.4100407
470.1662244
468.1333242
467.0103834
466.4618042
466.2234188
466.1302249
466.0964965
466.0842633
466.078978
466.0757753
466.0732284
466.0709794
466.0689817
466.0673149
466.0662034
466.0661641
466.0683627
466.0754298
466.0933297
466.135703
466.23412
466.4628358
467.0004278
468.2903711
471.4915788
479.9425311
489.9222072
483.6018593
477.9261659
473.369191
470.1363322
468.1168337
467.0047071
466.4627185
466.2274503
466.1353383
466.1017778
466.0894011
466.0839057
466.0805019
466.0777802
466.075387
466.0732825
466.0715644
466.0704969
466.0706803
466.0734506
466.0817767
466.1022879
466.1499038
466.2585894
466.5068812
467.080355
468.4315128
471.7204195
480.2207532
489.908943
483.5640251
477.8759204
473.3215126
470.1014784
468.0973391
466.9974831
466.4629425
466.2312089
466.1403484
466.1070117
466.0945037
466.0887968
466.0851883
466.0822899
466.0797537
466.0775486
466.0757937
466.0747997
466.075262
466.078707
466.0884766
466.1119185
466.1653092
466.2851003
466.5541721
467.1649883
468.578459
471.9540874
480.4980542
489.8920256
483.5170281
477.8145921
473.2639779
470.0595792
468.0736471
466.9881261
466.462221
466.2345877
466.1452063
466.1121699
466.0995502
466.093634
466.0898201
466.0867455
466.0840703
466.0817744
466.0800022
466.0791181
466.0799262
466.0841653
466.0955873
466.1223146
466.1820582
466.3138454
466.6049471
467.2545755
468.7313888
472.1926079
480.7743709
489.8687902
483.455411
477.7363275
473.19184
470.0075095
468.0440328
466.9758155
466.4602034
466.2374417
466.1498454
466.1172134
466.1045123
466.0983948
466.0943786
466.0911322
466.0883259
466.0859536
466.0841896
466.0834606
466.0846941
466.0898664
466.1031782
466.1335852
466.2003115
466.345043
466.6594731
467.3493906
468.8904993
472.4360097
481.0496399
489.8365138
483.371646
477.6324457
473.098054
469.940739
468.0060718
466.9594318
466.4564231
466.2395806
466.1541787
466.1220925
466.1093551
466.1030518
466.0988421
466.0954331
466.0925088
466.0900802
466.0883574
466.0878395
466.0895938
466.0958615
466.111334
466.1458615
466.2202595
466.3789497
466.7180624
467.4497577
469.0560387
472.6843656
481.3237991
489.7839582
483.2468404
477.4855508
472.9701889
469.8519373
467.9560906
466.9373627
466.4502305
466.2407427
466.1580862
466.1267376
466.1140295
466.1075671
466.1031806
466.0996252
466.0966027
466.0941458
466.0925073
466.09227
466.0946604
466.102214
466.1201587
466.1593022
466.2421293
466.4158679
466.7810787
467.5560481
469.2282778
472.9377262
481.5967869
489.7048099
483.0592131
477.2718195
472.7908569
469.7311427
467.8893102
466.9076002
466.4408456
466.2406225
466.1614314
466.1310734
466.1184857
466.1119046
466.1073678
466.1036905
466.100598
466.0981502
466.0966512
466.0967813
466.0999475
466.1090134
466.129792
466.1741155
466.2662162
466.4561922
466.8490102
467.6688016
469.4077151
473.1964014
481.868555
489.5351772
482.7245887
476.9298823
472.5244079
469.5607746
467.7981581
466.8671985
466.4271739
466.2387916
466.1640138
466.1349807
466.1226395
466.1160002
466.1113539
466.1075914
466.1044689
466.1020812
466.1007937
466.1014003
466.1055134
466.1163615
466.1403952
466.1905391
466.2928488
466.5003432
466.9223376
467.7884661
469.5945863
473.4602503
482.1390468
489.2405817
482.1638663
476.3949712
472.1348124
469.3248235
467.6765732
466.8141066
466.4085548
466.2350297
466.1657531
466.1384305
466.1264856
466.1198625
466.1151577
466.1113556
466.1082532
466.1059889
466.1050027
466.1062212
466.1114909
466.1244472
466.152237
466.2089524
466.3225536
466.5490332
467.0019964
467.9162294
469.790333
473.7307038
482.4082737
488.3767569
481.0404492
475.5139199
471.5647005
469.0052523
467.5199858
466.747455
466.3848426
466.2292417
466.1665285
466.1412964
466.1299071
466.1233882
466.1186894
466.1149068
466.1118885
466.1098275
466.1092526
466.1112433
466.1179094
466.1333329
466.1654075
466.2294487
466.3553626
466.6020957
467.0873636
468.0506007
469.9921584
474.0042003
482.6762035
488.8881522
481.8046724
476.2469372
472.141551
469.3936186
467.7477812
466.8660506
466.4411327
466.2548171
466.178723
466.1482052
466.1348343
466.1275392
466.1224708
466.1184547
466.1152556
466.1130421
466.1123364
466.1142201
466.1208134
466.1362254
466.1684094
466.2328094
466.3596021
466.6083049
467.0978503
468.0703394
470.0323139
474.0921801
482.8859589
489.3130118
482.3328055
476.7541474
472.5666083
469.6987971
467.937302
466.9698282
466.4926794
466.2792189
466.1907603
466.1551657
466.1398268
466.1317413
466.1262926
466.1220375
466.1186551
466.1162888
466.1154549
466.1172375
466.1237692
466.1391886
466.1715124
466.2363174
466.3640559
466.6148196
467.1087564
468.0906235
470.0731614
474.1810034
483.0857269
489.577864
482.7406364
477.1366929
472.8885131
469.9377549
468.0919895
467.0581574
466.5383821
466.3017372
466.2022908
466.1620208
466.1448085
466.1359481
466.130119
466.1256232
466.1220568
466.1195388
466.1185802
466.1202695
466.126754
466.1422053
466.1747098
466.2399856
466.3687735
466.6217574
467.1203246
468.1119259
470.115577
474.2719913
483.277875
489.7496073
483.0650138
477.4472323
473.1495066
470.1345819
468.2228551
467.1352311
466.5795875
466.3227415
466.213409
466.1688031
466.1498017
466.1401802
466.1339694
466.1292298
466.1254774
466.122807
466.1217253
466.1233261
466.1297733
466.1452743
466.1779892
466.2437838
466.3736962
466.6290142
467.1323808
468.1339675
470.1591265
474.3643565
483.4621789
489.8719078
483.3368423
477.7163236
473.373945
470.3041561
468.3372614
467.2040882
466.6173506
466.3425355
466.2241814
466.1755181
466.1547999
466.1444302
466.1378372
466.1328516
466.1289115
466.1260881
466.1248844
466.1264003
466.1328176
466.1483822
466.1813308
466.2476823
466.3787788
466.6365227
467.1448287
468.1566201
470.2036521
474.457812
483.6390343
489.9661987
483.5690659
477.9572766
473.5751676
470.4559499
468.4404736
467.2671517
466.6526196
466.3614387
466.2347006
466.1821878
466.1598061
466.148697
466.1417207
466.1364869
466.1323573
466.1293802
466.1280549
466.1294884
466.1358813
466.1515196
466.1847195
466.2516561
466.3839817
466.644221
467.1575751
468.1797515
470.2489695
474.5520113
483.808681
490.0435476
483.7716198
478.1779062
473.7610218
470.5959315
468.5360254
467.3261444
466.6861062
466.3797033
466.2450425
466.1888297
466.1648214
466.1529774
466.145616
466.1401319
466.1358114
466.13268
466.1312335
466.1325863
466.1389591
466.1546789
466.1881433
466.255687
466.3892765
466.6520667
467.1705595
468.2032837
470.2949623
474.6467191
483.9714371
490.1096322
483.9509347
478.3824869
473.9360121
470.727865
468.6263087
467.3823026
466.7183497
466.3975314
466.2552719
466.1954607
466.1698477
466.1572698
466.1495208
466.1437844
466.1392717
466.1359853
466.1344178
466.1356913
466.1420472
466.1578546
466.1915941
466.2597623
466.394644
466.6600393
467.1837956
468.2272034
470.3415196
474.7416784
484.1276135
490.1676567
484.1117897
478.5737883
474.1028487
470.8541605
468.7129434
467.4365024
466.7497484
466.415078
466.2654405
466.2020946
466.174887
466.1615727
466.153433
466.1474422
466.1427362
466.1392943
466.1376059
466.1388014
466.145143
466.161043
466.1950662
466.2638738
466.4000931
466.6681516
467.1972123
468.2514286
470.3886064
474.836767
484.2775275
490.2195638
484.2576772
478.7536865
474.2631731
470.9763673
468.7970337
467.4893681
466.7805972
466.4324623
466.2755894
466.208743
466.1799411
466.1658852
466.1573511
466.1511039
466.1462036
466.1426057
466.1407966
466.141915
466.1482446
466.1642416
466.1985604
466.2680335
466.405607
466.6763607
467.2107885
468.2759373
470.4361902
474.9318844
484.4214874
490.2666362
484.3912417
478.9235815
474.4180171
471.0954919
468.8793382
467.5413466
466.8111145
466.4497756
466.2857517
466.2154158
466.1850117
466.1702067
466.1612739
466.1547683
466.1496728
466.1459187
466.1439892
466.1450314
466.1513518
466.1674541
466.202078
466.2722262
466.4111738
466.6846563
467.2245126
468.3007184
470.4842478
475.0269379
484.5597901
490.3097741
484.5145073
479.0845742
474.5680506
471.2121912
468.9603819
467.5927606
466.8414636
466.4670887
466.2959536
466.2221209
466.1901006
466.1745367
466.1652005
466.1584346
466.1531431
466.1492327
466.147183
466.1481511
466.154466
466.1706771
466.2056132
466.2764479
466.4167885
466.6930321
467.2383783
468.3257662
470.5327604
475.1218426
484.6927186
490.3496404
484.6290513
479.2375716
474.7137306
471.3268963
469.0405297
467.643845
466.8717678
466.4844568
466.3062166
466.2288656
466.1952092
466.1788752
466.1691304
466.162102
466.1566134
466.152547
466.1503784
466.1512738
466.1575855
466.1739094
466.2091642
466.2806961
466.4224477
466.7014843
467.2523824
468.3510781
470.5817106
475.2165208
484.8205407
490.3867404
484.7361199
479.3833415
474.8553866
471.43989
469.1200359
467.6947717
466.9021204
466.5019231
466.3165583
466.2356559
466.2003381
466.1832214
466.1730627
466.16577
466.1600845
466.1558621
466.1535752
466.1543991
466.1607097
466.17715
466.2127296
466.284969
466.4281491
466.7100107
467.2665231
468.3766526
470.6310813
475.3109017
484.9435098
490.4214687
484.8367117
479.5225459
474.9932707
471.5513579
469.1990768
467.7456671
466.9325919
466.5195122
466.3269839
466.2425013
466.2054954
466.1875791
466.1769987
466.169439
466.1635558
466.1591776
466.1567729
466.1575264
466.163838
466.1803983
466.2163085
466.2892653
466.4338914
466.7186098
467.2807998
468.4024888
470.6808549
475.404921
485.0618651
490.4541397
484.9316369
479.655762
475.1275874
471.6614211
469.2777729
467.7966181
466.9631646
466.5372605
466.337549
466.2494187
466.210684
466.1919483
466.1809382
466.1731086
466.1670271
466.1624932
466.1599713
466.1606556
466.1669701
466.1836536
466.2199001
466.2935841
466.4396734
466.7272806
467.2952121
468.4285854
470.7310133
475.4985203
485.1758327
490.4850079
485.0215604
479.7834965
475.2585104
471.770157
469.3561962
467.8475699
466.9939561
466.55524
466.348258
466.2564103
466.2159048
466.1963291
466.1848809
466.1767786
466.170498
466.1658085
466.16317
466.1637863
466.1701056
466.1869157
466.223504
466.2979247
466.4454942
466.7360225
467.30976
468.4549412
470.781538
475.5916466
485.2856258
490.5142819
485.1070344
479.9061965
475.3861933
471.8776137
469.4343874
467.8985496
467.0250504
466.5734581
466.3591149
466.263478
466.2211586
466.2007218
466.1888266
466.1804487
466.1739684
466.1691234
466.166369
466.1669182
466.1732444
466.1901841
466.2271197
466.3022864
466.4513533
466.7448351
467.3244433
468.4815545
470.8324101
475.6842523
485.3914461
490.5421355
485.1885214
480.0242576
475.5107745
471.9838093
469.512221
467.9497765
467.0564571
466.5919208
466.3701232
466.2706238
466.2264462
466.2051266
466.1927755
466.1841188
466.1774379
466.1724377
466.169568
466.1700514
466.1763861
466.1934586
466.2307469
466.306669
466.4572502
466.753718
467.3392622
468.5084234
470.8836103
475.7762941
485.4934841
490.5687137
485.266413
480.1380315
475.6323809
472.0887542
469.5897438
468.0012817
467.0881839
466.6106329
466.3812861
466.2778496
466.2317687
466.2095439
466.1967275
466.1877888
466.1809066
466.1757514
466.1727669
466.1731856
466.1795307
466.1967391
466.2343851
466.311072
466.4631845
466.762671
467.3542168
468.5355456
470.9351193
475.8677334
485.5919202
490.5941399
485.3410432
480.247831
475.7511316
472.1924568
469.6670142
468.0530578
467.1202355
466.6295985
466.3926065
466.2851574
466.2371271
466.213974
466.2006827
466.1914586
466.1843744
466.1790642
466.1759657
466.1763207
466.182678
466.2000253
466.2380343
466.315495
466.4691559
466.7716941
467.3693072
468.5629189
470.9869177
475.9585356
485.6869248
490.6185192
485.4126992
480.3539358
475.8671389
472.2949241
469.744067
468.1050968
467.152614
466.6488204
466.4040872
466.2925489
466.2425224
466.2184175
466.2046413
466.1951282
466.187841
466.1823761
466.1791642
466.1794566
466.1858279
466.203317
466.2416942
466.3199379
466.4751642
466.7807873
467.3845335
468.5905404
471.0389863
476.0486698
485.7786592
490.6419426
485.48163
480.4565965
475.9805092
472.3961631
469.8209198