# vtk DataFile Version 2.0
track0
ASCII
DATASET POLYDATA
POINTS 12278 float
-0.0205 0.001 1e-05
-0.02052 0.000999216 1e-05
-0.02054 0.000998592 1e-05
-0.02056 0.000998126 1e-05
-0.02058 0.000997818 1e-05
-0.0206 0.000997665 1e-05
-0.0205 0.00367778 1e-05
-0.02052 0.00367703 1e-05
-0.02054 0.00367643 1e-05
-0.02056 0.00367599 1e-05
-0.02058 0.00367569 1e-05
-0.0206 0.00367554 1e-05
-0.0205 0.00635556 1e-05
-0.02052 0.00635527 1e-05
-0.02054 0.00635505 1e-05
-0.02056 0.00635488 1e-05
-0.02058 0.00635476 1e-05
-0.0206 0.00635471 1e-05
-0.0205 0.00903333 1e-05
-0.02052 0.00903311 1e-05
-0.02054 0.00903293 1e-05
-0.02056 0.0090328 1e-05
-0.02058 0.00903271 1e-05
-0.0206 0.00903266 1e-05
-0.0205 0.0117111 1e-05
-0.02052 0.0117111 1e-05
-0.02054 0.011711 1e-05
-0.02056 0.011711 1e-05
-0.02058 0.011711 1e-05
-0.0206 0.011711 1e-05
-0.0205 0.0143889 1e-05
-0.02052 0.014389 1e-05
-0.02054 0.014389 1e-05
-0.02056 0.0143891 1e-05
-0.02058 0.0143891 1e-05
-0.0206 0.0143891 1e-05
-0.0205 0.0170667 1e-05
-0.02052 0.017067 1e-05
-0.02054 0.0170672 1e-05
-0.02056 0.0170674 1e-05
-0.02058 0.0170675 1e-05
-0.0206 0.0170676 1e-05
-0.0205 0.0197444 1e-05
-0.02052 0.019745 1e-05
-0.02054 0.0197454 1e-05
-0.02056 0.0197457 1e-05
-0.02058 0.0197459 1e-05
-0.0206 0.019746 1e-05
-0.0205 0.0224222 1e-05
-0.02052 0.022423 1e-05
-0.02054 0.0224236 1e-05
-0.02056 0.0224241 1e-05
-0.02058 0.0224244 1e-05
-0.0206 0.0224245 1e-05
-0.0205 0.0251 1e-05
-0.02052 0.0251003 1e-05
-0.02054 0.0251005 1e-05
-0.02056 0.0251007 1e-05
-0.02058 0.0251008 1e-05
-0.0206 0.0251008 1e-05
-0.0205 0.001 1e-05
-0.0203632 0.00100536 1e-05
-0.0202266 0.00101331 1e-05
-0.0200901 0.00102296 1e-05
-0.0200427 0.00102682 1e-05
-0.0198376 0.00104418 1e-05
-0.0196338 0.00107322 1e-05
-0.0194327 0.00111734 1e-05
-0.0192368 0.00118024 1e-05
-0.0190172 0.00124951 1e-05
-0.0189002 0.00128348 1e-05
-0.0187827 0.00131598 1e-05
-0.0186649 0.001347 1e-05
-0.0185469 0.001377 1e-05
-0.0183807 0.00141936 1e-05
-0.0182041 0.00146458 1e-05
-0.0180267 0.00150692 1e-05
-0.0178487 0.0015464 1e-05
-0.0176703 0.00158389 1e-05
-0.0174976 0.00161991 1e-05
-0.0172846 0.00166394 1e-05
-0.0170715 0.00170741 1e-05
-0.0168583 0.00175029 1e-05
-0.0166449 0.00179219 1e-05
-0.0163945 0.00184007 1e-05
-0.0163234 0.00185324 1e-05
-0.0162522 0.00186629 1e-05
-0.016181 0.00187921 1e-05
-0.0161097 0.00189201 1e-05
-0.0160387 0.0019046 1e-05
-0.0157586 0.0019535 1e-05
-0.0154779 0.00199931 1e-05
-0.0151968 0.00204225 1e-05
-0.0149154 0.00208283 1e-05
-0.0146381 0.00212134 1e-05
-0.0143838 0.00215527 1e-05
-0.0141293 0.00218766 1e-05
-0.0138747 0.00221855 1e-05
-0.0136198 0.00224797 1e-05
-0.0132934 0.00228369 1e-05
-0.0132791 0.00228515 1e-05
-0.0132648 0.0022866 1e-05
-0.0132504 0.00228805 1e-05
-0.0132361 0.0022895 1e-05
-0.0132214 0.00229098 1e-05
-0.0129776 0.00231543 1e-05
-0.0127337 0.00233865 1e-05
-0.0124897 0.00236061 1e-05
-0.0122456 0.00238129 1e-05
-0.0120025 0.00240058 1e-05
-0.0117547 0.00241909 1e-05
-0.0115067 0.00243627 1e-05
-0.0112587 0.00245231 1e-05
-0.0110106 0.00246734 1e-05
-0.0107632 0.00248136 1e-05
-0.0105252 0.00249391 1e-05
-0.0102872 0.00250547 1e-05
-0.0100491 0.00251602 1e-05
-0.00981105 0.00252575 1e-05
-0.00957337 0.00253471 1e-05
-0.00934491 0.00254261 1e-05
-0.00911643 0.00254974 1e-05
-0.00888792 0.0025561 1e-05
-0.0086594 0.00256171 1e-05
-0.00843108 0.00256668 1e-05
-0.00821175 0.00257084 1e-05
-0.00799241 0.00257439 1e-05
-0.00777306 0.00257731 1e-05
-0.0075537 0.00257952 1e-05
-0.00733443 0.00258114 1e-05
-0.00712387 0.00258212 1e-05
-0.0069133 0.00258255 1e-05
-0.00670273 0.00258243 1e-05
-0.00649216 0.00258162 1e-05
-0.0062816 0.00258017 1e-05
-0.00607944 0.00257819 1e-05
-0.0058773 0.00257565 1e-05
-0.00567516 0.00257256 1e-05
-0.00547303 0.00256874 1e-05
-0.00527083 0.00256419 1e-05
-0.00507675 0.00255912 1e-05
-0.00488269 0.00255342 1e-05
-0.00468865 0.00254711 1e-05
-0.00449464 0.00253997 1e-05
-0.00430044 0.0025319 1e-05
-0.00411412 0.00252329 1e-05
-0.00392784 0.00251388 1e-05
-0.00374159 0.00250368 1e-05
-0.0035554 0.00249254 1e-05
-0.00336883 0.00248015 1e-05
-0.00318995 0.00246711 1e-05
-0.00301115 0.00245299 1e-05
-0.00283245 0.00243774 1e-05
-0.00265386 0.0024212 1e-05
-0.00247443 0.00240314 1e-05
-0.0023027 0.00238425 1e-05
-0.00213114 0.00236383 1e-05
-0.00195982 0.00234153 1e-05
-0.00178875 0.00231737 1e-05
-0.00161577 0.00229105 1e-05
-0.00161569 0.00229103 1e-05
-0.0016156 0.00229102 1e-05
-0.00161552 0.00229101 1e-05
-0.00161543 0.00229099 1e-05
-0.00161535 0.00229098 1e-05
-0.00145056 0.00226407 1e-05
-0.00128618 0.00223481 1e-05
-0.00112222 0.00220325 1e-05
-0.000958707 0.00216946 1e-05
-0.000791418 0.00213235 1e-05
-0.000633135 0.00209424 1e-05
-0.000475556 0.00205331 1e-05
-0.000318719 0.00200963 1e-05
-0.000162835 0.00196265 1e-05
0 0.0019095 1e-05
3.73311e-05 0.0018963 1e-05
7.45623e-05 0.00188283 1e-05
0.000111695 0.00186908 1e-05
0.000148731 0.00185508 1e-05
0.000179034 0.00184338 1e-05
0.000248905 0.00181593 1e-05
0.000318365 0.00178747 1e-05
0.000387399 0.00175799 1e-05
0.000455993 0.00172749 1e-05
0.000528387 0.00169411 1e-05
0.000634886 0.00164313 1e-05
0.000740278 0.0015899 1e-05
0.00084451 0.00153443 1e-05
0.00094762 0.0014769 1e-05
0.00101983 0.00143468 1e-05
0.00102804 0.00142972 1e-05
0.00103624 0.00142475 1e-05
0.00104443 0.00141975 1e-05
0.00105262 0.00141475 1e-05
0.00106088 0.00140967 1e-05
0.00116821 0.00134348 1e-05
0.00127404 0.00127492 1e-05
0.00137827 0.00120396 1e-05
0.00148099 0.00113083 1e-05
0.00159663 0.00104511 1e-05
0.00159681 0.00104497 1e-05
0.00159699 0.00104483 1e-05
0.00159716 0.00104469 1e-05
0.00159734 0.00104456 1e-05
0.00159752 0.00104442 1e-05
0.00169217 0.00097086 1e-05
0.00178542 0.000895534 1e-05
0.00187718 0.000818411 1e-05
0.00196754 0.000739634 1e-05
0.00203792 0.000676366 1e-05
0.002058 0.000657862 1e-05
0.002078 0.000639268 1e-05
0.00209791 0.000620584 1e-05
0.00211777 0.000601837 1e-05
0.00213833 0.000582305 1e-05
0.00219144 0.000531503 1e-05
0.00224406 0.000480184 1e-05
0.00229616 0.000428341 1e-05
0.00234773 0.000375967 1e-05
0.00239402 0.000328255 1e-05
0.00245188 0.000267775 1e-05
0.00250911 0.000206694 1e-05
0.00256571 0.000145031 1e-05
0.0026218 8.29005e-05 1e-05
0.00268334 1.35525e-05 1e-05
0.0026857 1.0842e-05 1e-05
0.00268805 8.13049e-06 1e-05
0.00269041 5.418e-06 1e-05
0.00269276 2.7045e-06 1e-05
0.00269511 0 1e-05
0.00275901 -7.37367e-05 1e-05
0.00282228 -0.000148005 1e-05
0.00288492 -0.000222813 1e-05
0.0029469 -0.000298172 1e-05
0.00300397 -0.000368654 1e-05
0.00304969 -0.000425957 1e-05
0.00309511 -0.000483507 1e-05
0.00314021 -0.000541299 1e-05
0.00318507 -0.000599286 1e-05
0.00323259 -0.000661289 1e-05
0.00325062 -0.00068505 1e-05
0.00326859 -0.00070885 1e-05
0.00328651 -0.000732691 1e-05
0.00330438 -0.000756571 1e-05
0.00332191 -0.000780089 1e-05
0.00339005 -0.000871877 1e-05
0.00345759 -0.000964106 1e-05
0.00352451 -0.00105679 1e-05
0.00359089 -0.00114986 1e-05
0.00365375 -0.00123896 1e-05
0.00368022 -0.00127687 1e-05
0.00370662 -0.00131485 1e-05
0.00373294 -0.00135287 1e-05
0.00375921 -0.00139093 1e-05
0.00378611 -0.00143002 1e-05
0.00383007 -0.00149411 1e-05
0.00387382 -0.00155835 1e-05
0.00391735 -0.00162273 1e-05
0.00396065 -0.00168727 1e-05
0.00400279 -0.00175043 1e-05
0.00407102 -0.00185329 1e-05
0.00413883 -0.00195643 1e-05
0.00420621 -0.00205984 1e-05
0.00427331 -0.00216344 1e-05
0.00434393 -0.00227315 1e-05
0.00434996 -0.00228258 1e-05
0.00435599 -0.00229201 1e-05
0.00436201 -0.00230145 1e-05
0.00436803 -0.00231089 1e-05
0.00437403 -0.0023203 1e-05
0.00445487 -0.00244725 1e-05
0.00453527 -0.00257448 1e-05
0.00461527 -0.00270197 1e-05
0.00469492 -0.00282968 1e-05
0.0047728 -0.00295497 1e-05
0.00479945 -0.00299802 1e-05
0.00482609 -0.00304108 1e-05
0.00485269 -0.00308415 1e-05
0.00487929 -0.00312724 1e-05
0.00490609 -0.00317064 1e-05
0.00496671 -0.00326884 1e-05
0.00502719 -0.00336713 1e-05
0.00508751 -0.00346551 1e-05
0.0051477 -0.00356397 1e-05
0.00520734 -0.00366161 1e-05
0.00526039 -0.00374853 1e-05
0.00531341 -0.00383548 1e-05
0.00536639 -0.00392245 1e-05
0.00541939 -0.00400941 1e-05
0.00547262 -0.00409663 1e-05
0.00551559 -0.00416693 1e-05
0.00555852 -0.00423724 1e-05
0.00560142 -0.00430758 1e-05
0.0056443 -0.00437793 1e-05
0.00568712 -0.00444811 1e-05
0.0057584 -0.00456486 1e-05
0.00582974 -0.00468159 1e-05
0.00590112 -0.00479828 1e-05
0.00597264 -0.00491489 1e-05
0.00604356 -0.00503007 1e-05
0.00607981 -0.0050887 1e-05
0.00611607 -0.00514734 1e-05
0.00615234 -0.00520597 1e-05
0.00618863 -0.00526458 1e-05
0.00622503 -0.00532326 1e-05
0.00630381 -0.00545002 1e-05
0.00638278 -0.00557667 1e-05
0.00646195 -0.00570319 1e-05
0.00654139 -0.00582955 1e-05
0.00661893 -0.00595208 1e-05
0.00666283 -0.006021 1e-05
0.00670679 -0.00608989 1e-05
0.0067508 -0.00615875 1e-05
0.00679489 -0.00622755 1e-05
0.00683937 -0.00629671 1e-05
0.00691125 -0.00640811 1e-05
0.00698338 -0.00651934 1e-05
0.00705578 -0.00663041 1e-05
0.00712846 -0.00674128 1e-05
0.00719878 -0.00684774 1e-05
0.00726948 -0.006954 1e-05
0.0073404 -0.00706011 1e-05
0.00741154 -0.00716607 1e-05
0.007483 -0.00727182 1e-05
0.00755599 -0.00737909 1e-05
0.00760142 -0.00744538 1e-05
0.00764697 -0.00751158 1e-05
0.00769266 -0.00757769 1e-05
0.00773847 -0.00764371 1e-05
0.00778313 -0.00770773 1e-05
0.00790091 -0.00787569 1e-05
0.00801946 -0.00804311 1e-05
0.00813878 -0.00820998 1e-05
0.0082591 -0.00837613 1e-05
0.00837203 -0.00853004 1e-05
0.00837975 -0.00854041 1e-05
0.00838746 -0.00855078 1e-05
0.00839518 -0.00856114 1e-05
0.00840291 -0.00857151 1e-05
0.00841066 -0.00858189 1e-05
0.00852163 -0.00873052 1e-05
0.00863342 -0.00887852 1e-05
0.00874606 -0.00902588 1e-05
0.00885956 -0.00917258 1e-05
0.00896551 -0.00930766 1e-05
0.00903014 -0.009389 1e-05
0.00909503 -0.00947012 1e-05
0.00916018 -0.00955103 1e-05
0.00922564 -0.00963169 1e-05
0.00929327 -0.00971439 1e-05
0.00934734 -0.00977997 1e-05
0.0094016 -0.00984539 1e-05
0.00945605 -0.00991065 1e-05
0.00951071 -0.00997575 1e-05
0.0095636 -0.0100383 1e-05
[...]
POINT_DATA 12278
 FIELD attributes 2
p 1 12278 float
177013 177095 177167 177230 177284 177329
108946 108964 108981 108995 109007 109017
87752.9 87762.5 87771.8 87781 87790 87798.4
79935.2 79941.5 79947.7 79953.9 79959.9 79965.9
77144.3 77153.5 77162.7 77171.9 77181.2 77190.4
77561.7 77575.2 77588.8 77602.4 77615.9 77629.5
81094.8 81107.3 81119.5 81131.6 81143.5 81155.3
90921.3 90941 90960.1 90978.4 90996 91012.8
117353 117386 117416 117445 117471 117494
215472 215282 215090 214896 214700 214502
177013 173408 169080 164502 162836 158904 155521 152871 144706 134664 129222 123793 119855 119244 118392 112347 106447 102326 101430 100563 99581.3 98599 97172.4 95704.1 93988.5 93622 93255 92887.4 92406.4 91908.7 89989.2 88185.3 86671.3 85883.9 85107.2 84421.4 83756.7 83106.8 82455.1 81621.1 81586.2 81557.3 81529.3 81501.2 81472.4 80939.6 80407.3 79875.5 79344.2 78919.2 78492.9 78083.8 77686.1 77310.5 76944.5 76594.6 76244.3 75920.5 75619.1 75318 75028.5 74738.9 74460.3 74197.5 73934.9 73681.3 73427.6 73177.5 72941.3 72705.3 72476.4 72247.4 72016.9 71797.5 71578.3 71364.6 71151.1 70932.5 70721.6 70511 70303.8 70096.9 69883.9 69671.5 69459.3 69247.4 69036 68820.8 68592.8 68365.2 68132.2 67896.6 67652.5 67399.9 67134 66853.7 66539.9 66227.8 65917.1 65604.1 65603.9 65603.7 65603.5 65603.3 65603.1 65211.8 64826.2 64446.3 64048.1 63568 63052.5 62542.8 61841.7 61068.5 60255.4 60007.2 59769.3 59542.3 59315.9 59130.6 58573.6 58014.4 57453.2 56979.8 56511.4 55906.8 55304.1 54764.3 54223.2 53839 53780.8 53722.5 53667.1 53619.4 53571.1 53017.9 52457.6 51939.6 51467.2 50922.1 50920.9 50919.8 50918.8 50918 50917.1 50490 50055.5 49653 49317.6 49048.6 48949.3 48849.6 48778.7 48709 48636.3 48447.9 48257.1 48064.6 47920.2 47788.2 47615.4 47446.7 47307 47165.2 47005.8 46999.5 46993.1 46986.7 46981 46975.5 46870.2 46757.9 46643.1 46529.8 46422.9 46387.3 46350.5 46311 46270.6 46226.8 46206.7 46186.4 46166 46144.9 46123.8 46098.4 46071.7 46034.6 45992.3 45950.8 45953.2 45955.4 45954.6 45953.8 45952.9 45941.6 45929.9 45917.8 45902.7 45887.5 45897.3 45906.4 45911 45915 45918.7 45917.8 45917 45916.1 45915.1 45914 45927.6 45941.2 45953.8 45964.6 45974.9 45985.2 45995.4 46005.3 46015 46024.8 46036.3 46047.7 46058.9 46070 46080.9 46099.4 46117.8 46136.2 46154.8 46173.4 46182 46190.5 46199.2 46208.3 46217.4 46240.1 46262.9 46286.3 46310.2 46333.9 46341.3 46348.7 46356.5 46364.7 46373 46396.3 46419.6 46443.7 46469 46493.8 46502.7 46511.6 46521.3 46531.5 46541.8 46561.5 46581.2 46601.6 46623.5 46644.8 46658.6 46672.6 46688.3 46704.6 46721.3 46732.8 46744.4 46756.1 46768.8 46781.2 46803.1 46825.3 46850.7 46876.9 46902.9 46904 46905.1 46906.5 46907.9 46909.3 46930.4 46951.8 46973.6 46997.5 47019.9 47029.4 47039 47050 47061.1 47072.6 47082.3 47092 47101.8 47112.2 47122.3 47139.5 47156.8 47175.8 47195.7 47215 47217.6 47220.2 47223.2 47226.2 47229.1 47243.5 47257.9 47272.4 47288 47302.9 47316.7 47330.9 47346.4 47362 47378.9 47379 47379 47379.1 47379.2 47379.3 47393.9 47408.6 47423.4 47439.3 47454.6 47466.6 47479.2 47492.8 47506.5 47519.6 47520.2 47520.9 47521.6 47522.3 47523 47534.7 47546.6 47558.5 47571.1 47583.5 47593.8 47604.2 47615.8 47628 47640 47644.1 47648.5 47653.1 47657.8 47662.7 47668.6 47674.4 47680.3 47686.4 47692.8 47701.6 47710.7 47720.5 47731.4 47741.8 47749.4 47757.5 47766.5 47775.4 47784.6 47786.7 47789.1 47791.7 47794.2 47796.9 47802.2 47807.6 47813 47818.5 47824.5 47830.7 47837.3 47844.2 47852.3 47860.1 47865.2 47870.2 47876.5 47883.1 47889.9 47893.5 47898.1 47902.8 47907.5 47912.8 47913 47913.3 47913.5 47913.7 47914 47918.2 47922.3 47926.4 47930.6 47935.6 47937.9 47940.5 47943.5 47947.4 47951.3 47952.4 47953.5 47955.4 47958.2 47960.9 47960.9 47961.3 47962.2 47963.1 47964.5 47963.7 47963.4 47963.2 47962.9 47962.5 47962.5 47962.4 47962.4 47962.4 47962.4 47961.1 47959.8 47958.4 47957 47956.2 47953.1 47950.5 47947.9 47945.7 47943.9 47939.5 47935.2 47931.5 47928.4 47925.4 47919.9 47914.4 47909.4 47905.1 47900.9 47894.2 47887.7 47881.6 47875.9 47870.4 47862.7 47855.3 47848.1 47840.8 47834.2 47825.4 47817.1 47808.7 47800.3 47792.2 47783.6 47775.2 47766.7 47758.3 47748.4 47747.7 47746.9 47746.2 47745.5 47744.8 47734.3 47723.9 47713.4 47703 47692.6 47680.9 47669.4 47657.9 47646.4 47635.1 47622.1 47609.7 47597.2 47584.7 47572.4 47558.5 47544.8 47531.4 47518 47504.7 47489.8 47475.1 47460.7 47446.4 47432.2 47416.5 47400.7 47385.5 47370.3 47355.1 47338.5 47322 47305.7 47289.6 47273.6 47256.2 47238.9 47221.7 47204.8 47187.9 47169.8 47151.7 47133.6 47115.9 47098.2 47079.4 47060.6 47041.7 47023.2 47004.7 46985.2 46965.7 46946.2 46926.9 46907.6 46887.5 46867.4 46847.1 46827.1 46807.2 46786.5 46765.7 46744.8 46724.1 46703.5 46682.2 46660.8 46639.4 46618 46596.9 46575 46553.1 46531.1 46509.1 46487.3 46465 46442.5 46420 46397.4 46375.1 46352.3 46329.3 46306.3 46283.3 46260.4 46237.1 46213.6 46190.2 46166.7 46143.3 46119.6 46095.7 46071.8 46047.8 46024.1 45999.9 45975.5 45951.2 45926.9 45902.7 45878.1 45853.4 45828.7 45804 45779.4 45754.4 45729.3 45704.3 45679.2 45654.2 45628.9 45603.5 45578.1 45552.7 45527.3 45501.7 45476 45450.3 45424.5 45398.9 45372.9 45346.9 45320.9 45294.8 45268.9 45242.6 45216.3 45190 45163.7 45137.4 45110.9 45084.4 45057.8 45031.2 45004.7 44977.9 44951.1 44924.3 44897.4 44870.6 44843.6 44816.5 44789.5 44762.4 44735.4 44708.1 44680.8 44653.6 44626.3 44599 44571.5 44544 44516.5 44489 44461.5 44433.8 44406.1 44378.4 44350.7 44323 44295.1 44267.2 44239.3 44211.3 44183.4 44155.3 44127.2 44099.1 44071 44042.9 44014.7 43986.4 43958.1 43929.8 43901.5 43873 43844.5 43816.1 43787.6 43759.1 43730.5 43701.8 43673.2 43644.5 43615.8 43587 43558.2 43529.4 43500.5 43471.7 43442.7 43413.7 43384.7 43355.7 43326.7 43297.5 43268.4 43239.2 43210 43180.8 43151.5 43122.1 43092.8 43063.4 43034.1 43004.6 42975.1 42945.6 42916 42886.5 42856.8 42827.2 42797.5 42767.8 42738.1 42708.2 42678.4 42648.5 42618.6 42588.8 42558.8 42528.7 42498.7 42468.7 42438.6 42408.4 42378.2 42348 42317.8 42287.6 42257.2 42226.8 42196.4 42166 42135.6 42105.1 42074.5 42044 42013.4 41982.8 41952.1 41921.3 41890.6 41859.8 41829.1 41798.2 41767.2 41736.3 41705.4 41674.4 41643.3 41612.2 41581.1 41550 41518.8 41487.5 41456.2 41424.9 41393.6 41362.2 41330.8 41299.3 41267.8 41236.2 41204.7 41173 41141.3 41109.6 41077.9 41046.2 41014.3 40982.4 40950.5 40918.6 40886.6 40854.5 40822.4 40790.3 40758.2 40726 40693.7 40661.4 40629.1 40596.8 40564.4 40531.9 40499.3 40466.8 40434.3 40401.7 40369 40336.2 40303.4 40270.7 40237.9 40204.9 40171.9 40139 40106 40072.9 40039.8 40006.6 39973.4 39940.2 39906.9 39873.5 39840.1 39806.6 39773.2 39739.7 39706.1 39672.4 39638.7 39605.1 39571.3 39537.5 39503.6 39469.6 39435.7 39401.8 39367.7 39333.5 39299.4 39265.2 39231 39196.7 39162.3 39127.9 39093.5 39059 39024.4 38989.8 38955.1 38920.5 38885.7 38850.9 38816 38781.1 38746.2 38711.2 38676.1 38641 38605.8 38570.7 38535.4 38500.1 38464.7 38429.3 38393.8 38358.3 38322.7 38287 38251.4 38215.7 38179.9 38144 38108.1 38072.2 38036.2 38000.2 37964 37927.8 37891.6 37855.4 37819.1 37782.7 37746.2 37709.7 37673.2 37636.6 37599.9 37563.2 37526.4 37489.6 37452.8 37415.8 37378.8 37341.7 37304.7 37267.5 37230.3 37193 37155.6 37118.3 37080.9 37043.3 37005.8 36968.1 36930.5 36892.8 36855 36817.1 36779.2 36741.3 36703.3 36665.2 36627 36588.8 36550.6 36512.3 36473.9 36435.4 36396.9 36358.4 36319.8 36281.1 36242.4 36203.6 36164.8 36125.9 36086.9 36047.9 36008.8 35969.6 35930.5 35891.2 35851.8 35812.4 35773 35733.5 35693.9 35654.3 35614.6 35574.8 35535.1 35495.1 35455.2 35415.2 35375.1 35335.1 35294.8 35254.6 35214.2 35173.9 35133.5 35093 35052.4 35011.8 34971.1 34930.4 34889.5 34848.6 34807.7 34766.7 34725.7 34684.5 34643.3 34602 34560.7 34519.4 34477.9 34436.3 34394.8 34353.1 34311.5 34269.6 34227.8 34185.9 34143.9 34102 34059.8 34017.6 33975.4 33933.1 33890.8 33848.3 33805.8 33763.3 33720.7 33678 33635.2 33592.4 33549.5 33506.5 33463.6 33420.4 33377.3 33334 33290.7 33247.4 33204 33160.5 33116.9 33073.3 33029.6 32985.8 32942 32898.1 32854.1 32810.2 32766 32721.8 32677.6 32633.3 32588.9 32544.4 32499.9 32455.3 32410.7 32366 32321.2 32276.3 32231.4 32186.4 32141.4 32096.2 32050.9 32005.7 31960.3 31914.9 31869.4 31823.8 31778.2 31732.5 31686.8 31640.9 31594.9 31549 31502.9 31456.8 31410.5 31364.3 31317.9 31271.5 31225.1 31178.4 31131.8 31085.1 31038.3 30991.5 30944.5 30897.5 30850.5 30803.3 30756.2 30708.8 30661.4 30614 30566.5 30519 30471.2 30423.5 30375.7 30327.8 30279.9 30231.8 30183.7 30135.5 30087.2 30039 29990.5 29942 29893.5 29844.8 29796.2 29747.3 29698.5 29649.5 29600.5 29551.5 29502.2 29453 29403.7 29354.3 29304.9 29255.2 29205.6 29155.9 29106.1 29056.3 29006.3 28956.3 28906.2 28856 28805.8 28755.4 28705 28654.5 28603.9 28553.3 28502.5 28451.7 28400.8 28349.8 28298.9 28247.6 28196.4 28145.1 28093.7 28042.4 27990.7 27939.1 27887.4 27835.6 27783.8 27731.8 27679.7 27627.6 27575.4 27523.2 27470.8 27418.3 27365.8 27313.2 27260.6 27207.7 27154.8 27101.8 27048.8 26995.8 26942.5 26889.2 26835.8 26782.3 26728.9 26675.1 26621.4 26567.6 26513.7 26459.8 26405.7 26351.5 26297.3 26243 26188.7 26134.2 26079.6 26025 25970.3 25915.6 25860.6 25805.6 25750.6 25695.6 25640.5 25585.1 25529.8 25474.5 25419.1 25363.7 25308 25252.4 25196.8 25141.1 25085.5 25029.6 24973.8 24918.1 24862.4 24806.6 24750.7 24694.9 24639.2 24583.6 24527.9 24472.2 24416.9 24361.8 24306.7 24252 24197.3 24142.4 24087.4 24032.4 23977 23922.3 23873.6 23825 23776.4 23732.6 23683.4 23618.1 23552.6 23487.1 23412.6 23361.4 23331 23301 23271.2 23257 23252.8 23248.7 23244.5 23240.3 23238.8 23236.2 23230.9 23225.7 23220.4 23214.7 23187.7 23160.5 23133.1 23105.4 23061.8 22985.9 22916.9 22848 22779.1 22722.8 22671.7 22615.4 22559 22502.7 22440 22372.2 22304.2 22236.1 22167.9 22099.5 22028.2 21955 21881.7 21808.5 21733.1 21654.9 21575.1 21495.3 21415.5 21334.1 21249.8 21163.7 21077.5 20991.4 20903.4 20812.4 20719.5 20626.5 20533.5 20438.7 20340.6 20240.4 20140.1 20039.7 19937.4 19831.5 19723.3 19615 19506.6 19396.1 19281.8 19164.7 19047.5 18930.2 18810.4 18686.4 18559.7 18432.8 18305.7 18176.3 18042.2 17904.3 17766.1 17627.8 17485.9 17338.9 17189.3 17039.4 16889.4 16737.2 16579.4 16414.8 16249.9 16084.7 15913.2 15735.5 15557.3 15379.2 15201 15022.9 14838.3 14638.8 14438.4 14237.4 14022.1 13798.9 13585.8 13373.3 13161.4 12960 12751.2 12503.7 12253.9 12002 11712.7 11412.6 11157.2 10904.7 10654.9 10450.2 10237.6 9921.63 9598.05 9265.89 8833.2 8384.22 8071.46 7773.84 7494.25 7349.15 7198.11 6801.63 6357.17 5838.93 5089.56 4311.28 3779.13 3398.22 3250.87 3316.61 3382.92 3361.97 2777.11 1388.14 0