# vtk DataFile Version 2.0
track0
ASCII
DATASET POLYDATA
POINTS 12278 float
-0.0205 0.001 1e-05
-0.02052 0.000999216 1e-05
-0.02054 0.000998592 1e-05
-0.02056 0.000998126 1e-05
-0.02058 0.000997818 1e-05
-0.0206 0.000997665 1e-05
-0.0205 0.00367778 1e-05
-0.02052 0.00367703 1e-05
-0.02054 0.00367643 1e-05
-0.02056 0.00367599 1e-05
-0.02058 0.00367569 1e-05
-0.0206 0.00367554 1e-05
-0.0205 0.00635556 1e-05
-0.02052 0.00635527 1e-05
-0.02054 0.00635505 1e-05
-0.02056 0.00635488 1e-05
-0.02058 0.00635476 1e-05
-0.0206 0.00635471 1e-05
-0.0205 0.00903333 1e-05
-0.02052 0.00903311 1e-05
-0.02054 0.00903293 1e-05
-0.02056 0.0090328 1e-05
-0.02058 0.00903271 1e-05
-0.0206 0.00903266 1e-05
-0.0205 0.0117111 1e-05
-0.02052 0.0117111 1e-05
-0.02054 0.011711 1e-05
-0.02056 0.011711 1e-05
-0.02058 0.011711 1e-05
-0.0206 0.011711 1e-05
-0.0205 0.0143889 1e-05
-0.02052 0.014389 1e-05
-0.02054 0.014389 1e-05
-0.02056 0.0143891 1e-05
-0.02058 0.0143891 1e-05
-0.0206 0.0143891 1e-05
-0.0205 0.0170667 1e-05
-0.02052 0.017067 1e-05
-0.02054 0.0170672 1e-05
-0.02056 0.0170674 1e-05
-0.02058 0.0170675 1e-05
-0.0206 0.0170676 1e-05
-0.0205 0.0197444 1e-05
-0.02052 0.019745 1e-05
-0.02054 0.0197454 1e-05
-0.02056 0.0197457 1e-05
-0.02058 0.0197459 1e-05
-0.0206 0.019746 1e-05
-0.0205 0.0224222 1e-05
-0.02052 0.022423 1e-05
-0.02054 0.0224236 1e-05
-0.02056 0.0224241 1e-05
-0.02058 0.0224244 1e-05
-0.0206 0.0224245 1e-05
-0.0205 0.0251 1e-05
-0.02052 0.0251003 1e-05
-0.02054 0.0251005 1e-05
-0.02056 0.0251007 1e-05
-0.02058 0.0251008 1e-05
-0.0206 0.0251008 1e-05
-0.0205 0.001 1e-05
-0.0203632 0.00100536 1e-05
-0.0202266 0.00101331 1e-05
-0.0200901 0.00102296 1e-05
-0.0200427 0.00102682 1e-05
-0.0198376 0.00104418 1e-05
-0.0196338 0.00107322 1e-05
-0.0194327 0.00111734 1e-05
-0.0192368 0.00118024 1e-05
-0.0190172 0.00124951 1e-05
-0.0189002 0.00128348 1e-05
-0.0187827 0.00131598 1e-05
-0.0186649 0.001347 1e-05
-0.0185469 0.001377 1e-05
-0.0183807 0.00141936 1e-05
-0.0182041 0.00146458 1e-05
-0.0180267 0.00150692 1e-05
-0.0178487 0.0015464 1e-05
-0.0176703 0.00158389 1e-05
-0.0174976 0.00161991 1e-05
-0.0172846 0.00166394 1e-05
-0.0170715 0.00170741 1e-05
-0.0168583 0.00175029 1e-05
-0.0166449 0.00179219 1e-05
-0.0163945 0.00184007 1e-05
-0.0163234 0.00185324 1e-05
-0.0162522 0.00186629 1e-05
-0.016181 0.00187921 1e-05
-0.0161097 0.00189201 1e-05
-0.0160387 0.0019046 1e-05
-0.0157586 0.0019535 1e-05
-0.0154779 0.00199931 1e-05
-0.0151968 0.00204225 1e-05
-0.0149154 0.00208283 1e-05
-0.0146381 0.00212134 1e-05
-0.0143838 0.00215527 1e-05
-0.0141293 0.00218766 1e-05
-0.0138747 0.00221855 1e-05
-0.0136198 0.00224797 1e-05
-0.0132934 0.00228369 1e-05
-0.0132791 0.00228515 1e-05
-0.0132648 0.0022866 1e-05
-0.0132504 0.00228805 1e-05
-0.0132361 0.0022895 1e-05
-0.0132214 0.00229098 1e-05
-0.0129776 0.00231543 1e-05
-0.0127337 0.00233865 1e-05
-0.0124897 0.00236061 1e-05
-0.0122456 0.00238129 1e-05
-0.0120025 0.00240058 1e-05
-0.0117547 0.00241909 1e-05
-0.0115067 0.00243627 1e-05
-0.0112587 0.00245231 1e-05
-0.0110106 0.00246734 1e-05
-0.0107632 0.00248136 1e-05
-0.0105252 0.00249391 1e-05
-0.0102872 0.00250547 1e-05
-0.0100491 0.00251602 1e-05
-0.00981105 0.00252575 1e-05
-0.00957337 0.00253471 1e-05
-0.00934491 0.00254261 1e-05
-0.00911643 0.00254974 1e-05
-0.00888792 0.0025561 1e-05
-0.0086594 0.00256171 1e-05
-0.00843108 0.00256668 1e-05
-0.00821175 0.00257084 1e-05
-0.00799241 0.00257439 1e-05
-0.00777306 0.00257731 1e-05
-0.0075537 0.00257952 1e-05
-0.00733443 0.00258114 1e-05
-0.00712387 0.00258212 1e-05
-0.0069133 0.00258255 1e-05
-0.00670273 0.00258243 1e-05
-0.00649216 0.00258162 1e-05
-0.0062816 0.00258017 1e-05
-0.00607944 0.00257819 1e-05
-0.0058773 0.00257565 1e-05
-0.00567516 0.00257256 1e-05
-0.00547303 0.00256874 1e-05
-0.00527083 0.00256419 1e-05
-0.00507675 0.00255912 1e-05
-0.00488269 0.00255342 1e-05
-0.00468865 0.00254711 1e-05
-0.00449464 0.00253997 1e-05
-0.00430044 0.0025319 1e-05
-0.00411412 0.00252329 1e-05
-0.00392784 0.00251388 1e-05
-0.00374159 0.00250368 1e-05
-0.0035554 0.00249254 1e-05
-0.00336883 0.00248015 1e-05
-0.00318995 0.00246711 1e-05
-0.00301115 0.00245299 1e-05
-0.00283245 0.00243774 1e-05
-0.00265386 0.0024212 1e-05
-0.00247443 0.00240314 1e-05
-0.0023027 0.00238425 1e-05
-0.00213114 0.00236383 1e-05
-0.00195982 0.00234153 1e-05
-0.00178875 0.00231737 1e-05
-0.00161577 0.00229105 1e-05
-0.00161569 0.00229103 1e-05
-0.0016156 0.00229102 1e-05
-0.00161552 0.00229101 1e-05
-0.00161543 0.00229099 1e-05
-0.00161535 0.00229098 1e-05
-0.00145056 0.00226407 1e-05
-0.00128618 0.00223481 1e-05
-0.00112222 0.00220325 1e-05
-0.000958707 0.00216946 1e-05
-0.000791418 0.00213235 1e-05
-0.000633135 0.00209424 1e-05
-0.000475556 0.00205331 1e-05
-0.000318719 0.00200963 1e-05
-0.000162835 0.00196265 1e-05
0 0.0019095 1e-05
3.73311e-05 0.0018963 1e-05
7.45623e-05 0.00188283 1e-05
0.000111695 0.00186908 1e-05
0.000148731 0.00185508 1e-05
0.000179034 0.00184338 1e-05
0.000248905 0.00181593 1e-05
0.000318365 0.00178747 1e-05
0.000387399 0.00175799 1e-05
0.000455993 0.00172749 1e-05
0.000528387 0.00169411 1e-05
0.000634886 0.00164313 1e-05
0.000740278 0.0015899 1e-05
0.00084451 0.00153443 1e-05
0.00094762 0.0014769 1e-05
0.00101983 0.00143468 1e-05
0.00102804 0.00142972 1e-05
0.00103624 0.00142475 1e-05
0.00104443 0.00141975 1e-05
0.00105262 0.00141475 1e-05
0.00106088 0.00140967 1e-05
0.00116821 0.00134348 1e-05
0.00127404 0.00127492 1e-05
0.00137827 0.00120396 1e-05
0.00148099 0.00113083 1e-05
0.00159663 0.00104511 1e-05
0.00159681 0.00104497 1e-05
0.00159699 0.00104483 1e-05
0.00159716 0.00104469 1e-05
0.00159734 0.00104456 1e-05
0.00159752 0.00104442 1e-05
0.00169217 0.00097086 1e-05
0.00178542 0.000895534 1e-05
0.00187718 0.000818411 1e-05
0.00196754 0.000739634 1e-05
0.00203792 0.000676366 1e-05
0.002058 0.000657862 1e-05
0.002078 0.000639268 1e-05
0.00209791 0.000620584 1e-05
0.00211777 0.000601837 1e-05
0.00213833 0.000582305 1e-05
0.00219144 0.000531503 1e-05
0.00224406 0.000480184 1e-05
0.00229616 0.000428341 1e-05
0.00234773 0.000375967 1e-05
0.00239402 0.000328255 1e-05
0.00245188 0.000267775 1e-05
0.00250911 0.000206694 1e-05
0.00256571 0.000145031 1e-05
0.0026218 8.29005e-05 1e-05
0.00268334 1.35525e-05 1e-05
0.0026857 1.0842e-05 1e-05
0.00268805 8.13049e-06 1e-05
0.00269041 5.418e-06 1e-05
0.00269276 2.7045e-06 1e-05
0.00269511 0 1e-05
0.00275901 -7.37367e-05 1e-05
0.00282228 -0.000148005 1e-05
0.00288492 -0.000222813 1e-05
0.0029469 -0.000298172 1e-05
0.00300397 -0.000368654 1e-05
0.00304969 -0.000425957 1e-05
0.00309511 -0.000483507 1e-05
0.00314021 -0.000541299 1e-05
0.00318507 -0.000599286 1e-05
0.00323259 -0.000661289 1e-05
0.00325062 -0.00068505 1e-05
0.00326859 -0.00070885 1e-05
0.00328651 -0.000732691 1e-05
0.00330438 -0.000756571 1e-05
0.00332191 -0.000780089 1e-05
0.00339005 -0.000871877 1e-05
0.00345759 -0.000964106 1e-05
0.00352451 -0.00105679 1e-05
0.00359089 -0.00114986 1e-05
0.00365375 -0.00123896 1e-05
0.00368022 -0.00127687 1e-05
0.00370662 -0.00131485 1e-05
0.00373294 -0.00135287 1e-05
0.00375921 -0.00139093 1e-05
0.00378611 -0.00143002 1e-05
0.00383007 -0.00149411 1e-05
0.00387382 -0.00155835 1e-05
0.00391735 -0.00162273 1e-05
0.00396065 -0.00168727 1e-05
0.00400279 -0.00175043 1e-05
0.00407102 -0.00185329 1e-05
0.00413883 -0.00195643 1e-05
0.00420621 -0.00205984 1e-05
0.00427331 -0.00216344 1e-05
0.00434393 -0.00227315 1e-05
0.00434996 -0.00228258 1e-05
0.00435599 -0.00229201 1e-05
0.00436201 -0.00230145 1e-05
0.00436803 -0.00231089 1e-05
0.00437403 -0.0023203 1e-05
0.00445487 -0.00244725 1e-05
0.00453527 -0.00257448 1e-05
0.00461527 -0.00270197 1e-05
0.00469492 -0.00282968 1e-05
0.0047728 -0.00295497 1e-05
0.00479945 -0.00299802 1e-05
0.00482609 -0.00304108 1e-05
0.00485269 -0.00308415 1e-05
0.00487929 -0.00312724 1e-05
0.00490609 -0.00317064 1e-05
0.00496671 -0.00326884 1e-05
0.00502719 -0.00336713 1e-05
0.00508751 -0.00346551 1e-05
0.0051477 -0.00356397 1e-05
0.00520734 -0.00366161 1e-05
0.00526039 -0.00374853 1e-05
0.00531341 -0.00383548 1e-05
0.00536639 -0.00392245 1e-05
0.00541939 -0.00400941 1e-05
0.00547262 -0.00409663 1e-05
0.00551559 -0.00416693 1e-05
0.00555852 -0.00423724 1e-05
0.00560142 -0.00430758 1e-05
0.0056443 -0.00437793 1e-05
0.00568712 -0.00444811 1e-05
0.0057584 -0.00456486 1e-05
0.00582974 -0.00468159 1e-05
0.00590112 -0.00479828 1e-05
0.00597264 -0.00491489 1e-05
0.00604356 -0.00503007 1e-05
0.00607981 -0.0050887 1e-05
0.00611607 -0.00514734 1e-05
0.00615234 -0.00520597 1e-05
0.00618863 -0.00526458 1e-05
0.00622503 -0.00532326 1e-05
0.00630381 -0.00545002 1e-05
0.00638278 -0.00557667 1e-05
0.00646195 -0.00570319 1e-05
0.00654139 -0.00582955 1e-05
0.00661893 -0.00595208 1e-05
0.00666283 -0.006021 1e-05
0.00670679 -0.00608989 1e-05
0.0067508 -0.00615875 1e-05
0.00679489 -0.00622755 1e-05
0.00683937 -0.00629671 1e-05
0.00691125 -0.00640811 1e-05
0.00698338 -0.00651934 1e-05
0.00705578 -0.00663041 1e-05
0.00712846 -0.00674128 1e-05
0.00719878 -0.00684774 1e-05
0.00726948 -0.006954 1e-05
0.0073404 -0.00706011 1e-05
0.00741154 -0.00716607 1e-05
0.007483 -0.00727182 1e-05
0.00755599 -0.00737909 1e-05
0.00760142 -0.00744538 1e-05
0.00764697 -0.00751158 1e-05
0.00769266 -0.00757769 1e-05
0.00773847 -0.00764371 1e-05
0.00778313 -0.00770773 1e-05
0.00790091 -0.00787569 1e-05
0.00801946 -0.00804311 1e-05
0.00813878 -0.00820998 1e-05
0.0082591 -0.00837613 1e-05
0.00837203 -0.00853004 1e-05
0.00837975 -0.00854041 1e-05
0.00838746 -0.00855078 1e-05
0.00839518 -0.00856114 1e-05
0.00840291 -0.00857151 1e-05
0.00841066 -0.00858189 1e-05
0.00852163 -0.00873052 1e-05
0.00863342 -0.00887852 1e-05
0.00874606 -0.00902588 1e-05
0.00885956 -0.00917258 1e-05
0.00896551 -0.00930766 1e-05
0.00903014 -0.009389 1e-05
0.00909503 -0.00947012 1e-05
0.00916018 -0.00955103 1e-05
0.00922564 -0.00963169 1e-05
0.00929327 -0.00971439 1e-05
0.00934734 -0.00977997 1e-05
0.0094016 -0.00984539 1e-05
0.00945605 -0.00991065 1e-05
0.00951071 -0.00997575 1e-05
0.0095636 -0.0100383 1e-05
[...]
POINT_DATA 12278
 FIELD attributes 1
U 3 12278 float
9.72339 	0.381311 	0 9.77871 	0.305049 	0 9.83405 	0.228765 	0 9.8894 	0.152465 	0 9.94476 	0.0761532 	0 10 	0 	0
10.0671 	0.375483 	0 10.0537 	0.300387 	0 10.0403 	0.225271 	0 10.0268 	0.150141 	0 10.0134 	0.0750009 	0 10 	0 	0
10.0364 	0.141572 	0 10.0291 	0.113304 	0 10.0218 	0.085089 	0 10.0145 	0.0569263 	0 10.0071 	0.0288164 	0 10 	0 	0
10.0137 	0.111519 	0 10.011 	0.0892151 	0 10.0082 	0.0669108 	0 10.0055 	0.0446062 	0 10.0027 	0.0223012 	0 10 	0 	0
10.0097 	0.0196534 	0 10.0078 	0.0157227 	0 10.0058 	0.011792 	0 10.0039 	0.00786134 	0 10.0019 	0.00393066 	0 10 	0 	0
10.0102 	-0.0372875 	0 10.0082 	-0.02983 	0 10.0061 	-0.0223725 	0 10.0041 	-0.014915 	0 10.002 	-0.00745741 	0 10 	0 	0
10.0174 	-0.148997 	0 10.0139 	-0.119197 	0 10.0105 	-0.0893967 	0 10.007 	-0.0595953 	0 10.0035 	-0.0297932 	0 10 	0 	0
10.0362 	-0.265901 	0 10.029 	-0.212721 	0 10.0217 	-0.159534 	0 10.0145 	-0.106342 	0 10.0072 	-0.053146 	0 10 	0 	0
10.0563 	-0.387167 	0 10.045 	-0.309734 	0 10.0338 	-0.23228 	0 10.0225 	-0.15481 	0 10.0112 	-0.0773281 	0 10 	0 	0
8.30133 	-0.114495 	0 8.4287 	-0.091596 	0 8.55659 	-0.0686962 	0 8.68498 	-0.0457957 	0 8.81385 	-0.0228949 	0 8.94315 	0 	0
9.72339 	0.381311 	0 9.5415 	0.555241 	0 9.39671 	0.663651 	0 9.26203 	0.754271 	0 9.2183 	0.780385 	0 8.95344 	1.27614 	0 8.70578 	1.91036 	0 8.48173 	2.72184 	0 8.46724 	2.67123 	0 8.47252 	2.45986 	0 8.50117 	2.35314 	0 8.52498 	2.2443 	0 8.51221 	2.16311 	0 8.42487 	2.14738 	0 8.30214 	2.12559 	0 8.30117 	1.9821 	0 8.28715 	1.83798 	0 8.21181 	1.72569 	0 8.035 	1.67507 	0 7.86306 	1.62575 	0 7.68323 	1.56759 	0 7.50177 	1.50875 	0 7.42793 	1.45839 	0 7.36148 	1.40771 	0 7.27865 	1.34671 	0 7.22249 	1.32376 	0 7.16614 	1.3007 	0 7.10958 	1.27753 	0 7.07928 	1.2544 	0 7.05291 	1.23121 	0 6.97394 	1.13838 	0 6.88841 	1.05226 	0 6.79883 	0.980329 	0 6.71191 	0.932083 	0 6.6228 	0.883658 	0 6.55089 	0.833774 	0 6.49229 	0.787587 	0 6.44246 	0.743855 	0 6.3887 	0.69909 	0 6.31694 	0.642265 	0 6.31477 	0.64017 	0 6.3132 	0.638345 	0 6.31172 	0.636559 	0 6.31023 	0.63477 	0 6.30868 	0.632931 	0 6.27132 	0.597061 	0 6.23151 	0.560862 	0 6.18922 	0.524331 	0 6.1444 	0.487462 	0 6.10943 	0.456251 	0 6.07602 	0.420968 	0 6.04571 	0.390994 	0 6.01701 	0.364549 	0 5.99443 	0.339599 	0 5.97316 	0.315194 	0 5.95246 	0.28906 	0 5.92972 	0.262717 	0 5.91348 	0.241656 	0 5.9034 	0.222651 	0 5.89182 	0.203584 	0 5.87917 	0.183517 	0 5.86498 	0.16335 	0 5.85627 	0.143785 	0 5.85337 	0.127396 	0 5.84919 	0.110981 	0 5.84297 	0.0943455 	0 5.8355 	0.0776689 	0 5.83341 	0.0589663 	0 5.83631 	0.043092 	0 5.83801 	0.0272182 	0 5.83718 	0.0119201 	0 5.83535 	-0.00344683 	0 5.83921 	-0.0225487 	0 5.84733 	-0.0400407 	0 5.85425 	-0.0574787 	0 5.85861 	-0.0735461 	0 5.86186 	-0.0895875 	0 5.87122 	-0.110976 	0 5.88469 	-0.132515 	0 5.89666 	-0.153982 	0 5.90651 	-0.173349 	0 5.91508 	-0.192646 	0 5.92941 	-0.218106 	0 5.94829 	-0.247063 	0 5.96528 	-0.27588 	0 5.98123 	-0.302113 	0 5.99552 	-0.328197 	0 6.01456 	-0.359811 	0 6.03867 	-0.400977 	0 6.06027 	-0.441898 	0 6.08261 	-0.480363 	0 6.10481 	-0.520987 	0 6.13012 	-0.567645 	0 6.1546 	-0.619718 	0 6.17873 	-0.67953 	0 6.20611 	-0.738527 	0 6.23746 	-0.811921 	0 6.26493 	-0.884778 	0 6.28858 	-0.957098 	0 6.3087 	-1.02981 	0 6.30871 	-1.02985 	0 6.30873 	-1.02991 	0 6.30874 	-1.02997 	0 6.30875 	-1.03002 	0 6.30877 	-1.03008 	0 6.33256 	-1.12727 	0 6.35111 	-1.22235 	0 6.36452 	-1.31537 	0 6.37528 	-1.41407 	0 6.38856 	-1.53827 	0 6.40637 	-1.66402 	0 6.41792 	-1.78768 	0 6.4058 	-1.93019 	2.62098e-20 6.36943 	-2.07916 	5.37305e-20 6.31928 	-2.23394 	8.12329e-20 6.31107 	-2.28439 	2.33958e-20 6.2989 	-2.33171 	5.84948e-21 6.28254 	-2.37572 	3.12735e-20 6.26562 	-2.41948 	5.73177e-20 6.25128 	-2.45516 	7.91921e-20 6.22489 	-2.55103 	1.78967e-19 6.19655 	-2.64634 	2.82904e-19 6.16626 	-2.74106 	3.90976e-19 6.12011 	-2.82221 	2.74341e-19 6.06356 	-2.90256 	6.249e-20 5.98359 	-3.02223 	4.92737e-20 5.89843 	-3.13892 	3.61877e-20 5.80156 	-3.23676 	8.57219e-21 5.70029 	-3.33267 	-1.80436e-20 5.62541 	-3.3992 	-3.61733e-20 5.61626 	-3.40851 	-3.59654e-20 5.60708 	-3.4178 	-3.57424e-20 5.59782 	-3.42646 	-3.68934e-20 5.58843 	-3.43341 	-4.17014e-20 5.5789 	-3.44044 	-4.65551e-20 5.45901 	-3.53665 	-2.82866e-20 5.33379 	-3.6309 	-9.44534e-21 5.20775 	-3.70785 	1.27538e-22 5.08152 	-3.76674 	-1.81998e-22 4.93256 	-3.83203 	7.67838e-23 4.9323 	-3.83218 	4.39395e-23 4.93204 	-3.83232 	1.10948e-23 4.9318 	-3.83242 	1.94774e-23 4.93157 	-3.8325 	4.88905e-23 4.93134 	-3.83258 	7.83133e-23 4.80563 	-3.88192 	1.13165e-21 4.67584 	-3.92966 	2.48937e-21 4.54892 	-3.96615 	4.21719e-21 4.4313 	-3.98325 	6.34217e-21 4.33598 	-3.99561 	8.21279e-21 4.30564 	-4.00328 	1.33607e-20 4.27508 	-4.01086 	1.85467e-20 4.24976 	-4.01258 	9.22403e-21 4.22458 	-4.01394 	-8.28238e-22 4.19828 	-4.01529 	-1.12507e-20 4.12448 	-4.0226 	-6.36164e-20 4.04949 	-4.02938 	-1.15614e-19 3.97348 	-4.03549 	-1.65799e-19 3.90932 	-4.02996 	-1.01564e-19 3.85051 	-4.02458 	-4.30494e-20 3.77293 	-4.02673 	4.17864e-21 3.69544 	-4.02598 	4.20006e-20 3.62354 	-4.01386 	3.42019e-20 3.55057 	-4.00127 	2.66741e-20 3.46852 	-3.98678 	1.86461e-20 3.46519 	-3.98636 	1.92699e-20 3.46186 	-3.98594 	1.98938e-20 3.45853 	-3.98552 	2.05179e-20 3.45538 	-3.9848 	2.10416e-20 3.45233 	-3.98397 	2.15241e-20 3.38419 	-3.97194 	1.41268e-20 3.314 	-3.95778 	7.41866e-21 3.2426 	-3.94293 	7.05174e-22 3.17081 	-3.91587 	6.16741e-21 3.10318 	-3.8891 	1.23507e-20 3.06108 	-3.87909 	3.47268e-20 3.01868 	-3.86769 	5.06293e-20 2.97707 	-3.84872 	2.3362e-20 2.93506 	-3.82953 	-3.84843e-21 2.88985 	-3.80883 	-3.27811e-20 2.87173 	-3.80228 	-3.88836e-20 2.85353 	-3.79567 	-4.49882e-20 2.83524 	-3.78902 	-5.10951e-20 2.81705 	-3.77995 	-5.72873e-20 2.79913 	-3.77044 	-6.33982e-20 2.74573 	-3.74938 	-1.07123e-19 2.6915 	-3.72782 	-1.50969e-19 2.6367 	-3.69717 	-1.46194e-19 2.58229 	-3.65979 	-8.81886e-20 2.52976 	-3.62368 	-3.27106e-20 2.51283 	-3.61476 	2.06647e-21 2.49586 	-3.60563 	3.52408e-20 2.47998 	-3.59323 	2.99857e-20 2.46404 	-3.58079 	2.47656e-20 2.44761 	-3.56797 	1.94454e-20 2.41708 	-3.54889 	5.65548e-20 2.38629 	-3.52961 	9.35846e-20 2.35524 	-3.51014 	1.30533e-19 2.32525 	-3.48563 	1.03447e-19 2.29585 	-3.46119 	7.23008e-20 2.25891 	-3.4355 	4.24486e-20 2.22153 	-3.40948 	1.25642e-20 2.18696 	-3.37662 	-2.90345e-21 2.15215 	-3.34341 	-1.81097e-20 2.11502 	-3.30808 	-3.42154e-20 2.11131 	-3.30522 	-3.17943e-20 2.1076 	-3.30236 	-2.93759e-20 2.10389 	-3.2995 	-2.69604e-20 2.10039 	-3.29608 	-3.40044e-20 2.09691 	-3.29264 	-4.1345e-20 2.06019 	-3.26035 	-1.64567e-19 2.02447 	-3.22602 	-2.56556e-19 1.98941 	-3.18991 	-2.9965e-19 1.95718 	-3.14902 	-1.93316e-19 1.92542 	-3.10879 	-8.89834e-20 1.91682 	-3.09911 	-7.78907e-20 1.90819 	-3.08941 	-6.67937e-20 1.90085 	-3.07856 	-5.65209e-20 1.89381 	-3.06745 	-4.64387e-20 1.88672 	-3.05626 	-3.62808e-20 1.86479 	-3.03088 	-1.17439e-20 1.84275 	-3.0054 	1.28145e-20 1.82116 	-2.97924 	2.99882e-20 1.80213 	-2.95027 	1.21545e-20 1.78325 	-2.92152 	-5.51561e-21 1.76985 	-2.90256 	-2.11344e-20 1.75643 	-2.88357 	-3.67415e-20 1.74519 	-2.86328 	-1.81095e-20 1.73489 	-2.84248 	1.4723e-20 1.72459 	-2.82163 	4.7662e-20 1.71226 	-2.80444 	1.21601e-20 1.69992 	-2.78723 	-2.32915e-20 1.6882 	-2.76954 	-3.49079e-20 1.67812 	-2.75069 	1.29678e-20 1.66808 	-2.7319 	6.07123e-20 1.65476 	-2.70769 	1.97473e-19 1.64146 	-2.68352 	3.34174e-19 1.63053 	-2.65857 	2.9637e-19 1.62138 	-2.63314 	1.33616e-19 1.61247 	-2.6081 	-2.78272e-20 1.60466 	-2.59474 	-5.73802e-20 1.59686 	-2.58138 	-8.69411e-20 1.58987 	-2.56768 	-8.97855e-20 1.58399 	-2.55352 	-5.62874e-20 1.57813 	-2.53936 	-2.27626e-20 1.56814 	-2.51485 	-2.46245e-20 1.55826 	-2.49043 	-2.65262e-20 1.55032 	-2.46588 	-1.9333e-20 1.54489 	-2.44119 	-5.03529e-22 1.53982 	-2.41738 	1.7745e-20 1.53317 	-2.40289 	2.97192e-20 1.52656 	-2.38843 	4.16888e-20 1.52125 	-2.37374 	4.572e-20 1.5169 	-2.35891 	4.40965e-20 1.51257 	-2.34404 	4.2443e-20 1.50733 	-2.32431 	2.55662e-20 1.50223 	-2.30469 	8.66388e-21 1.4982 	-2.28527 	-3.13066e-21 1.49685 	-2.26623 	-1.11904e-21 1.49575 	-2.24807 	8.13457e-22 1.48878 	-2.22755 	7.62583e-20 1.48191 	-2.20713 	1.5193e-19 1.47765 	-2.18687 	1.25791e-19 1.47432 	-2.16677 	6.78083e-20 1.47109 	-2.14648 	8.99848e-21 1.46989 	-2.13594 	-2.33592e-20 1.46875 	-2.12545 	-5.56732e-20 1.46786 	-2.11513 	-8.19975e-20 1.46939 	-2.10625 	-3.64826e-20 1.47095 	-2.09768 	7.88488e-21 1.46382 	-2.06747 	4.60806e-21 1.457 	-2.03753 	1.31345e-21 1.45623 	-2.01097 	-2.34567e-20 1.45679 	-1.98526 	-5.17327e-20 1.4594 	-1.9623 	-7.48612e-20 1.45893 	-1.96033 	-6.8516e-20 1.45846 	-1.95837 	-6.22255e-20 1.45841 	-1.95661 	-6.69749e-20 1.45836 	-1.95486 	-7.17221e-20 1.45832 	-1.9531 	-7.64796e-20 1.45644 	-1.92818 	-2.09493e-19 1.45493 	-1.90356 	-3.41773e-19 1.45416 	-1.87951 	-4.46535e-19 1.45841 	-1.8593 	-1.9117e-19 1.46278 	-1.84094 	4.70833e-20 1.46063 	-1.82603 	1.1118e-19 1.4586 	-1.81122 	1.75059e-19 1.45951 	-1.79853 	1.42349e-19 1.46056 	-1.78595 	1.09739e-19 1.46177 	-1.77312 	7.63105e-20 1.46269 	-1.76356 	6.73866e-20 1.4637 	-1.75406 	5.84847e-20 1.46479 	-1.74463 	4.96051e-20 1.4674 	-1.73645 	5.16769e-20 1.47006 	-1.72869 	5.41923e-20 1.46955 	-1.70543 	2.95026e-20 1.46938 	-1.68245 	4.75103e-21 1.4723 	-1.66189 	2.02302e-20 1.4769 	-1.64243 	4.53159e-20 1.48284 	-1.62532 	6.85465e-20 1.48283 	-1.62125 	6.74273e-20 1.48291 	-1.61725 	6.75915e-20 1.4835 	-1.61363 	7.51543e-20 1.4841 	-1.61001 	8.2715e-20 1.48472 	-1.60637 	9.03641e-20 1.48743 	-1.59063 	1.39733e-19 1.4904 	-1.5751 	1.88979e-19 1.49364 	-1.55976 	2.381e-19 1.49882 	-1.54627 	1.68532e-19 1.50423 	-1.53409 	8.22635e-20 1.50589 	-1.51459 	1.55635e-19 1.50839 	-1.49583 	2.03743e-19 1.51301 	-1.479 	1.61886e-19 1.51797 	-1.46244 	1.2056e-19 1.52368 	-1.44495 	7.6769e-20 1.5237 	-1.44488 	7.65348e-20 1.52373 	-1.44482 	7.63006e-20 1.52375 	-1.44475 	7.60665e-20 1.52378 	-1.4447 	7.63777e-20 1.52381 	-1.44464 	7.6928e-20 1.52821 	-1.42762 	1.26522e-19 1.53301 	-1.41087 	1.74565e-19 1.53819 	-1.39438 	2.22215e-19 1.54496 	-1.37966 	1.84239e-19 1.55206 	-1.36674 	1.17111e-19 1.55539 	-1.34914 	2.03137e-19 1.5596 	-1.33242 	2.39599e-19 1.56524 	-1.31728 	1.74856e-19 1.57122 	-1.30238 	1.10328e-19 1.57758 	-1.28884 	3.78276e-20 1.57781 	-1.28784 	3.75741e-20 1.57808 	-1.28689 	3.67381e-20 1.5784 	-1.286 	3.51676e-20 1.57873 	-1.28511 	3.35967e-20 1.57905 	-1.28421 	3.20166e-20 1.58427 	-1.27027 	-1.3478e-20 1.58978 	-1.25653 	-5.88936e-20 1.5956 	-1.24298 	-1.04227e-19 1.6023 	-1.23064 	-8.9343e-20 1.60935 	-1.21992 	-3.00613e-20 1.6138 	-1.2044 	-7.54459e-20 1.61856 	-1.18909 	-1.21244e-19 1.62464 	-1.17571 	-1.03827e-19 1.63194 	-1.16305 	-6.09348e-20 1.63996 	-1.15167 	3.29654e-22 1.64225 	-1.14484 	2.88149e-20 1.64487 	-1.13851 	2.83036e-20 1.64773 	-1.13254 	7.12726e-21 1.65065 	-1.12662 	-1.39982e-20 1.65379 	-1.12044 	-3.61259e-20 1.65743 	-1.11362 	-6.80369e-20 1.66116 	-1.10685 	-9.98363e-20 1.66498 	-1.10013 	-1.31523e-19 1.66902 	-1.09385 	-1.31084e-19 1.67325 	-1.08837 	-7.98809e-20 1.6784 	-1.07463 	-1.11917e-19 1.68442 	-1.06137 	-1.36111e-19 1.69176 	-1.04897 	-1.4555e-19 1.69994 	-1.03836 	-1.35221e-19 1.70803 	-1.02839 	-1.25233e-19 1.7138 	-1.01488 	-2.75533e-19 1.72007 	-1.00218 	-3.50348e-19 1.72695 	-0.990744 	-2.96277e-19 1.7341 	-0.979464 	-2.42713e-19 1.7424 	-0.969388 	-1.16069e-19 1.7445 	-0.965047 	-8.25108e-20 1.74675 	-0.961157 	-8.47281e-20 1.74906 	-0.957401 	-9.66056e-20 1.7514 	-0.953662 	-1.08435e-19 1.75387 	-0.94978 	-1.20724e-19 1.75874 	-0.942425 	-1.24332e-19 1.76372 	-0.935138 	-1.27913e-19 1.76881 	-0.927917 	-1.31467e-19 1.77405 	-0.920986 	-1.29657e-19 1.77939 	-0.915222 	-1.05274e-19 1.78544 	-0.90329 	-1.32884e-19 1.79249 	-0.891934 	-1.44778e-19 1.80043 	-0.881081 	-1.4355e-19 1.80875 	-0.872013 	-1.02969e-19 1.81703 	-0.863482 	-6.09444e-20 1.82364 	-0.851791 	-1.64903e-19 1.83052 	-0.840265 	-2.66997e-19 1.83768 	-0.830572 	-2.25682e-19 1.84589 	-0.821467 	-1.27943e-19 1.85457 	-0.813021 	4.39343e-23 1.86119 	-0.802464 	1.42221e-22 1.86797 	-0.79354 	1.07607e-22 1.87493 	-0.784759 	6.89681e-23 1.8821 	-0.776078 	2.99005e-23 1.89047 	-0.766308 	-1.50706e-23 1.89085 	-0.765892 	7.0897e-22 1.89123 	-0.765476 	1.43254e-21 1.89161 	-0.765061 	2.15563e-21 1.89199 	-0.764645 	2.87825e-21 1.89236 	-0.764312 	4.21933e-22 1.89984 	-0.754858 	-2.52744e-20 1.90763 	-0.745574 	-4.71438e-20 1.91564 	-0.736402 	-6.88347e-20 1.92388 	-0.727352 	-8.98851e-20 1.93178 	-0.720364 	-3.12012e-20 1.93867 	-0.710408 	-2.11307e-20 1.94624 	-0.700892 	-1.39317e-20 1.95462 	-0.691908 	-1.04184e-20 1.96279 	-0.684636 	-1.5987e-20 1.97093 	-0.677768 	-2.2452e-20 1.97824 	-0.668061 	5.39388e-20 1.98578 	-0.658456 	1.30442e-19 1.99321 	-0.650368 	1.32358e-19 2.00152 	-0.643422 	6.57218e-20 2.00986 	-0.636679 	1.63248e-22 2.01757 	-0.627227 	9.70916e-23 2.0251 	-0.61885 	-1.11786e-20 2.03252 	-0.611309 	-3.10242e-20 2.04012 	-0.603847 	-5.0846e-20 2.04859 	-0.597208 	-6.38761e-20 2.0555 	-0.589502 	-1.06451e-19 2.06203 	-0.582992 	-1.10007e-19 2.06869 	-0.576538 	-1.13622e-19 2.07549 	-0.570143 	-1.17297e-19 2.08346 	-0.562861 	-1.21585e-19 2.08422 	-0.562196 	-1.22769e-19 2.08499 	-0.561531 	-1.23953e-19 2.08575 	-0.560867 	-1.25135e-19 2.08652 	-0.560204 	-1.26318e-19 2.08722 	-0.559665 	-1.22309e-19 2.09468 	-0.552365 	-9.4331e-20 2.10237 	-0.545207 	-6.50878e-20 2.11024 	-0.538118 	-3.58825e-20 2.11828 	-0.531098 	-6.71526e-21 2.12555 	-0.525608 	1.79221e-22 2.1327 	-0.517842 	6.74856e-20 2.14053 	-0.51086 	8.63887e-20 2.14854 	-0.503968 	1.03527e-19 2.15619 	-0.497891 	8.4335e-20 2.16321 	-0.492972 	1.4908e-20 2.17059 	-0.48545 	-5.50313e-20 2.1782 	-0.478076 	-1.18725e-19 2.18627 	-0.471435 	-1.34999e-19 2.19319 	-0.466569 	-6.72692e-20 2.20017 	-0.461789 	-7.25073e-23 2.20775 	-0.454508 	-3.96056e-23 2.21551 	-0.447287 	-6.87616e-24 2.22263 	-0.441423 	0 2.22947 	-0.436705 	0 2.23638 	-0.432062 	0 2.24413 	-0.425023 	0 2.2518 	-0.418305 	0 2.2583 	-0.413069 	0 2.265 	-0.408294 	-1.01517e-20 2.2718 	-0.403788 	-2.51734e-20 2.27969 	-0.396989 	-6.23782e-21 2.2866 	-0.391352 	-6.35093e-21 2.2931 	-0.386301 	-1.58168e-20 2.29972 	-0.381316 	-2.67448e-20 2.30639 	-0.376948 	-6.64859e-20 2.3141 	-0.370635 	-2.84731e-20 2.32045 	-0.365733 	-3.02626e-20 2.32692 	-0.360865 	-3.20238e-20 2.33351 	-0.356031 	-3.37571e-20 2.3401 	-0.351513 	-4.64707e-20 2.34635 	-0.346649 	-3.69113e-20 2.35196 	-0.342432 	-3.83625e-20 2.35766 	-0.33824 	-3.97921e-20 2.36346 	-0.334072 	-4.12005e-20 2.37031 	-0.32925 	-4.28145e-20 2.37083 	-0.328896 	-4.26966e-20 2.37135 	-0.328541 	-4.25789e-20 2.37187 	-0.328187 	-4.24613e-20 2.37239 	-0.327833 	-4.23439e-20 2.37285 	-0.327533 	-4.25208e-20 2.37901 	-0.322943 	-4.92057e-20 2.38528 	-0.318407 	-5.37549e-20 2.39165 	-0.313899 	-5.82271e-20 2.39813 	-0.309419 	-6.26228e-20 2.40377 	-0.305691 	-3.89669e-20 2.4101 	-0.300975 	-7.5159e-20 2.41626 	-0.296615 	-8.72921e-20 2.42253 	-0.29228 	-9.93665e-20 2.4289 	-0.28797 	-1.11382e-19 2.43354 	-0.284983 	-7.13068e-20 2.44012 	-0.280198 	-1.18581e-19 2.44616 	-0.276011 	-1.21108e-19 2.4523 	-0.271847 	-1.23588e-19 2.45819 	-0.267942 	-1.19e-19 2.46216 	-0.265378 	-7.53459e-20 2.46877 	-0.260761 	-1.17874e-19 2.47494 	-0.256556 	-1.2801e-19 2.48094 	-0.252561 	-1.22405e-19 2.48588 	-0.249299 	-9.47999e-20 2.48962 	-0.24684 	-4.3199e-20 2.4962 	-0.242427 	4.31574e-20 2.50259 	-0.238206 	1.0385e-19 2.50843 	-0.234377 	1.09347e-19 2.51241 	-0.231688 	5.03679e-20 2.5159 	-0.229332 	-2.66969e-20 2.52244 	-0.225118 	-1.75936e-20 2.52908 	-0.220923 	-8.50013e-21 2.5346 	-0.217338 	8.66906e-21 2.53778 	-0.215071 	2.59572e-20 2.54101 	-0.212816 	4.32202e-20 2.54749 	-0.208797 	-4.33231e-20 2.55407 	-0.204795 	-1.29879e-19 2.55906 	-0.201574 	-1.41244e-19 2.56198 	-0.199407 	-7.10833e-20 2.56495 	-0.197251 	-1.02118e-21 2.57136 	-0.193423 	-1.07576e-22 2.57786 	-0.189611 	7.85234e-22 2.58237 	-0.186725 	-1.56708e-20 2.58502 	-0.184656 	-4.9417e-20 2.58773 	-0.182597 	-8.31383e-20 2.59404 	-0.178957 	-4.7683e-20 2.60045 	-0.17533 	-1.22434e-20 2.60453 	-0.172753 	-8.54654e-21 2.60692 	-0.17078 	-2.59299e-20 2.60935 	-0.168816 	-4.32976e-20 2.61557 	-0.165358 	-2.59873e-20 2.62187 	-0.161914 	-8.70963e-21 2.62548 	-0.159636 	-9.45407e-21 2.62768 	-0.15774 	-2.60534e-20 2.62985 	-0.155868 	-4.33786e-20 2.63595 	-0.152588 	-1.64885e-19 2.6416 	-0.149533 	-2.61792e-19 2.64504 	-0.147374 	-2.57101e-19 2.64731 	-0.145495 	-1.64746e-19 2.64921 	-0.143714 	-4.33591e-20 2.6552 	-0.140607 	-2.59813e-20 2.66021 	-0.1379 	-8.62102e-21 2.66349 	-0.135856 	8.7088e-21 2.66584 	-0.134009 	2.13076e-20 2.66748 	-0.132316 	3.02496e-20 2.67335 	-0.129378 	9.13174e-20 2.67774 	-0.12698 	1.18691e-19 2.68085 	-0.125048 	1.17017e-19 2.68329 	-0.123245 	9.21093e-20 2.68467 	-0.121638 	3.16736e-20 2.69041 	-0.118864 	2.32317e-20 2.69422 	-0.116741 	1.4806e-20 2.69716 	-0.114917 	6.38543e-21 2.69969 	-0.113168 	0 2.70082 	-0.111645 	0 2.70642 	-0.109029 	0 2.70967 	-0.10715 	1.47191e-20 2.71245 	-0.105431 	3.25494e-20 2.71507 	-0.103743 	5.03645e-20 2.71594 	-0.102301 	6.81063e-20 2.72141 	-0.0998385 	1.90102e-19 2.72413 	-0.0981759 	1.93619e-19 2.72675 	-0.0965575 	1.91092e-19 2.72941 	-0.0949423 	1.88615e-19 2.73008 	-0.0935748 	7.02131e-20 2.73522 	-0.0913118 	5.31991e-20 2.73763 	-0.0897881 	3.62383e-20 2.74009 	-0.0882672 	1.92693e-20 2.74259 	-0.086749 	2.29215e-21 2.74327 	-0.0854329 	1.46992e-20 2.74795 	-0.0833867 	-4.34216e-24 2.75021 	-0.0819573 	-2.9888e-23 2.75251 	-0.0805302 	-5.54236e-23 2.75485 	-0.0791056 	-8.0949e-23 2.75553 	-0.0778451 	6.38953e-21 2.7598 	-0.075994 	-5.08097e-20 2.7619 	-0.0746552 	-4.95105e-20 2.76404 	-0.0733184 	-4.82388e-20 2.76622 	-0.0719838 	-4.69945e-20 2.76691 	-0.070782 	-5.64411e-21 2.77078 	-0.0691064 	8.55952e-23 2.77274 	-0.0678546 	6.04891e-23 2.77473 	-0.0666046 	3.53733e-23 2.77676 	-0.0653564 	1.02478e-23 2.77744 	-0.0642154 	0 2.78094 	-0.0626977 	1.11898e-20 2.78276 	-0.0615295 	3.7513e-20 2.78461 	-0.0603627 	6.38275e-20 2.78649 	-0.0591975 	9.01333e-20 2.78716 	-0.0581184 	1.07495e-19 2.79033 	-0.056743 	1.73099e-19 2.792 	-0.0556546 	1.72021e-19 2.79371 	-0.0545675 	1.7097e-19 2.79545 	-0.0534818 	1.69948e-19 2.7961 	-0.0524651 	1.02485e-19 2.79896 	-0.0512179 	8.75803e-20 2.8005 	-0.0502059 	5.31469e-20 2.80208 	-0.049195 	1.87082e-20 2.80368 	-0.0481852 	-1.5736e-20 2.80432 	-0.0472307 	-4.669e-20 2.80689 	-0.0460992 	-9.0211e-20 2.80831 	-0.0451601 	-8.9003e-20 2.80975 	-0.044222 	-8.78289e-20 2.81122 	-0.0432847 	-8.66886e-20 2.81183 	-0.0423917 	-3.70499e-20 2.81414 	-0.0413648 	-4.95357e-20 2.81544 	-0.0404951 	-3.17151e-20 2.81676 	-0.0396262 	-1.39123e-20 2.81811 	-0.0387581 	3.87253e-21 2.81868 	-0.0379254 	4.31037e-20 2.82077 	-0.036993 	4.9862e-20 2.82195 	-0.0361894 	6.73329e-20 2.82315 	-0.0353864 	8.47956e-20 2.82438 	-0.0345841 	1.0225e-19 2.82491 	-0.0338101 	1.22065e-19 2.82679 	-0.0329636 	1.46228e-19 2.82786 	-0.0322226 	1.37005e-19 2.82896 	-0.0314822 	1.27804e-19 2.83007 	-0.0307423 	1.18624e-19 2.83056 	-0.0300253 	8.16881e-20 2.83225 	-0.0292566 	5.80645e-20 2.83322 	-0.028575 	3.23164e-20 2.83421 	-0.0278939 	6.56652e-21 2.83522 	-0.0272132 	-1.91852e-20 2.83566 	-0.0265511 	-4.10462e-20 2.83718 	-0.0258533 	-5.61653e-20 2.83805 	-0.0252279 	-3.83914e-20 2.83894 	-0.0246028 	-2.06437e-20 2.83986 	-0.0239782 	-2.92196e-21 2.84023 	-0.0233687 	4.84829e-20 2.84161 	-0.0227355 	1.02322e-19 2.8424 	-0.0221631 	1.10002e-19 2.8432 	-0.021591 	1.17726e-19 2.84402 	-0.0210192 	1.25494e-19 2.84433 	-0.02046 	8.86215e-20 2.84558 	-0.0198858 	7.17983e-20 2.84628 	-0.0193634 	6.32546e-20 2.847 	-0.0188411 	5.47068e-20 2.84773 	-0.0183192 	4.61549e-20 2.84798 	-0.0178078 	3.76057e-20 2.84913 	-0.0172876 	1.44061e-20 2.84975 	-0.0168121 	1.47536e-20 2.85038 	-0.0163368 	1.50786e-20 2.85103 	-0.0158616 	1.53809e-20 2.85122 	-0.0153956 	4.14741e-20 2.85227 	-0.0149249 	3.9857