# vtk DataFile Version 2.0
track0
ASCII
DATASET POLYDATA
POINTS 12278 float
-0.0205 0.001 1e-05
-0.02052 0.000999216 1e-05
-0.02054 0.000998592 1e-05
-0.02056 0.000998126 1e-05
-0.02058 0.000997818 1e-05
-0.0206 0.000997665 1e-05
-0.0205 0.00367778 1e-05
-0.02052 0.00367703 1e-05
-0.02054 0.00367643 1e-05
-0.02056 0.00367599 1e-05
-0.02058 0.00367569 1e-05
-0.0206 0.00367554 1e-05
-0.0205 0.00635556 1e-05
-0.02052 0.00635527 1e-05
-0.02054 0.00635505 1e-05
-0.02056 0.00635488 1e-05
-0.02058 0.00635476 1e-05
-0.0206 0.00635471 1e-05
-0.0205 0.00903333 1e-05
-0.02052 0.00903311 1e-05
-0.02054 0.00903293 1e-05
-0.02056 0.0090328 1e-05
-0.02058 0.00903271 1e-05
-0.0206 0.00903266 1e-05
-0.0205 0.0117111 1e-05
-0.02052 0.0117111 1e-05
-0.02054 0.011711 1e-05
-0.02056 0.011711 1e-05
-0.02058 0.011711 1e-05
-0.0206 0.011711 1e-05
-0.0205 0.0143889 1e-05
-0.02052 0.014389 1e-05
-0.02054 0.014389 1e-05
-0.02056 0.0143891 1e-05
-0.02058 0.0143891 1e-05
-0.0206 0.0143891 1e-05
-0.0205 0.0170667 1e-05
-0.02052 0.017067 1e-05
-0.02054 0.0170672 1e-05
-0.02056 0.0170674 1e-05
-0.02058 0.0170675 1e-05
-0.0206 0.0170676 1e-05
-0.0205 0.0197444 1e-05
-0.02052 0.019745 1e-05
-0.02054 0.0197454 1e-05
-0.02056 0.0197457 1e-05
-0.02058 0.0197459 1e-05
-0.0206 0.019746 1e-05
-0.0205 0.0224222 1e-05
-0.02052 0.022423 1e-05
-0.02054 0.0224236 1e-05
-0.02056 0.0224241 1e-05
-0.02058 0.0224244 1e-05
-0.0206 0.0224245 1e-05
-0.0205 0.0251 1e-05
-0.02052 0.0251003 1e-05
-0.02054 0.0251005 1e-05
-0.02056 0.0251007 1e-05
-0.02058 0.0251008 1e-05
-0.0206 0.0251008 1e-05
-0.0205 0.001 1e-05
-0.0203632 0.00100536 1e-05
-0.0202266 0.00101331 1e-05
-0.0200901 0.00102296 1e-05
-0.0200427 0.00102682 1e-05
-0.0198376 0.00104418 1e-05
-0.0196338 0.00107322 1e-05
-0.0194327 0.00111734 1e-05
-0.0192368 0.00118024 1e-05
-0.0190172 0.00124951 1e-05
-0.0189002 0.00128348 1e-05
-0.0187827 0.00131598 1e-05
-0.0186649 0.001347 1e-05
-0.0185469 0.001377 1e-05
-0.0183807 0.00141936 1e-05
-0.0182041 0.00146458 1e-05
-0.0180267 0.00150692 1e-05
-0.0178487 0.0015464 1e-05
-0.0176703 0.00158389 1e-05
-0.0174976 0.00161991 1e-05
-0.0172846 0.00166394 1e-05
-0.0170715 0.00170741 1e-05
-0.0168583 0.00175029 1e-05
-0.0166449 0.00179219 1e-05
-0.0163945 0.00184007 1e-05
-0.0163234 0.00185324 1e-05
-0.0162522 0.00186629 1e-05
-0.016181 0.00187921 1e-05
-0.0161097 0.00189201 1e-05
-0.0160387 0.0019046 1e-05
-0.0157586 0.0019535 1e-05
-0.0154779 0.00199931 1e-05
-0.0151968 0.00204225 1e-05
-0.0149154 0.00208283 1e-05
-0.0146381 0.00212134 1e-05
-0.0143838 0.00215527 1e-05
-0.0141293 0.00218766 1e-05
-0.0138747 0.00221855 1e-05
-0.0136198 0.00224797 1e-05
-0.0132934 0.00228369 1e-05
-0.0132791 0.00228515 1e-05
-0.0132648 0.0022866 1e-05
-0.0132504 0.00228805 1e-05
-0.0132361 0.0022895 1e-05
-0.0132214 0.00229098 1e-05
-0.0129776 0.00231543 1e-05
-0.0127337 0.00233865 1e-05
-0.0124897 0.00236061 1e-05
-0.0122456 0.0023813 1e-05
-0.0120025 0.00240058 1e-05
-0.0117547 0.00241909 1e-05
-0.0115067 0.00243627 1e-05
-0.0112587 0.00245231 1e-05
-0.0110106 0.00246734 1e-05
-0.0107632 0.00248136 1e-05
-0.0105252 0.00249391 1e-05
-0.0102872 0.00250547 1e-05
-0.0100491 0.00251602 1e-05
-0.00981105 0.00252575 1e-05
-0.00957337 0.00253471 1e-05
-0.00934491 0.00254261 1e-05
-0.00911643 0.00254974 1e-05
-0.00888792 0.0025561 1e-05
-0.0086594 0.00256172 1e-05
-0.00843108 0.00256668 1e-05
-0.00821175 0.00257085 1e-05
-0.00799241 0.00257439 1e-05
-0.00777306 0.00257731 1e-05
-0.0075537 0.00257953 1e-05
-0.00733443 0.00258115 1e-05
-0.00712387 0.00258213 1e-05
-0.0069133 0.00258256 1e-05
-0.00670273 0.00258243 1e-05
-0.00649216 0.00258162 1e-05
-0.0062816 0.00258018 1e-05
-0.00607944 0.00257819 1e-05
-0.0058773 0.00257566 1e-05
-0.00567516 0.00257257 1e-05
-0.00547303 0.00256875 1e-05
-0.00527083 0.0025642 1e-05
-0.00507675 0.00255913 1e-05
-0.00488269 0.00255343 1e-05
-0.00468865 0.00254711 1e-05
-0.00449464 0.00253998 1e-05
-0.00430044 0.00253191 1e-05
-0.00411412 0.0025233 1e-05
-0.00392784 0.00251389 1e-05
-0.00374159 0.00250369 1e-05
-0.0035554 0.00249255 1e-05
-0.00336883 0.00248017 1e-05
-0.00318995 0.00246712 1e-05
-0.00301115 0.002453 1e-05
-0.00283245 0.00243775 1e-05
-0.00265386 0.00242122 1e-05
-0.00247443 0.00240315 1e-05
-0.0023027 0.00238426 1e-05
-0.00213114 0.00236385 1e-05
-0.00195982 0.00234155 1e-05
-0.00178875 0.00231739 1e-05
-0.00161577 0.00229107 1e-05
-0.00161566 0.00229105 1e-05
-0.00161556 0.00229103 1e-05
-0.00161545 0.00229101 1e-05
-0.00161534 0.002291 1e-05
-0.00161523 0.00229098 1e-05
-0.00145047 0.00226407 1e-05
-0.00128611 0.00223482 1e-05
-0.00112217 0.00220326 1e-05
-0.000958683 0.00216948 1e-05
-0.000791418 0.00213238 1e-05
-0.000633135 0.00209426 1e-05
-0.000475556 0.00205334 1e-05
-0.000318719 0.00200965 1e-05
-0.000162835 0.00196268 1e-05
0 0.00190953 1e-05
3.73467e-05 0.00189633 1e-05
7.45934e-05 0.00188284 1e-05
0.000111741 0.00186909 1e-05
0.000148792 0.00185508 1e-05
0.000179106 0.00184338 1e-05
0.000248962 0.00181594 1e-05
0.000318408 0.00178748 1e-05
0.000387428 0.001758 1e-05
0.000456009 0.00172752 1e-05
0.000528387 0.00169414 1e-05
0.000634886 0.00164316 1e-05
0.000740278 0.00158993 1e-05
0.00084451 0.00153447 1e-05
0.00094762 0.00147694 1e-05
0.0010199 0.00143469 1e-05
0.0010281 0.00142973 1e-05
0.00103628 0.00142476 1e-05
0.00104446 0.00141978 1e-05
0.00105263 0.00141478 1e-05
0.00106088 0.00140971 1e-05
0.00116821 0.00134352 1e-05
0.00127404 0.00127496 1e-05
0.00137827 0.00120401 1e-05
0.00148099 0.00113088 1e-05
0.0015967 0.00104511 1e-05
0.00159686 0.00104498 1e-05
0.00159703 0.00104485 1e-05
0.00159719 0.00104473 1e-05
0.00159735 0.0010446 1e-05
0.00159752 0.00104447 1e-05
0.00169218 0.000970903 1e-05
0.00178545 0.000895567 1e-05
0.00187723 0.000818431 1e-05
0.0019676 0.000739642 1e-05
0.00203799 0.000676367 1e-05
0.00205806 0.000657876 1e-05
0.00207804 0.000639296 1e-05
0.00209794 0.000620626 1e-05
0.00211778 0.000601893 1e-05
0.00213833 0.000582376 1e-05
0.00219146 0.00053156 1e-05
0.00224409 0.000480227 1e-05
0.00229621 0.000428368 1e-05
0.0023478 0.00037598 1e-05
0.00239409 0.000328255 1e-05
0.00245194 0.000267791 1e-05
0.00250916 0.000206728 1e-05
0.00256574 0.000145081 1e-05
0.00262182 8.29682e-05 1e-05
0.00268334 1.36415e-05 1e-05
0.00268571 1.09132e-05 1e-05
0.00268808 8.18386e-06 1e-05
0.00269046 5.45355e-06 1e-05
0.00269283 2.72222e-06 1e-05
0.00269519 0 1e-05
0.00275908 -7.37368e-05 1e-05
0.00282236 -0.000148005 1e-05
0.002885 -0.000222813 1e-05
0.00294698 -0.000298173 1e-05
0.00300405 -0.000368654 1e-05
0.00304976 -0.000425938 1e-05
0.00309515 -0.000483467 1e-05
0.00314024 -0.000541238 1e-05
0.00318508 -0.000599205 1e-05
0.00323259 -0.000661185 1e-05
0.00325063 -0.000684967 1e-05
0.00326862 -0.000708788 1e-05
0.00328656 -0.00073265 1e-05
0.00330445 -0.000756551 1e-05
0.00332199 -0.00078009 1e-05
0.00339013 -0.000871877 1e-05
0.00345767 -0.000964107 1e-05
0.00352459 -0.00105679 1e-05
0.00359097 -0.00114986 1e-05
0.00365383 -0.00123896 1e-05
0.00368029 -0.00127685 1e-05
0.00370667 -0.0013148 1e-05
0.00373297 -0.0013528 1e-05
0.00375922 -0.00139084 1e-05
0.00378611 -0.00142991 1e-05
0.00383009 -0.00149402 1e-05
0.00387385 -0.00155828 1e-05
0.0039174 -0.00162269 1e-05
0.00396072 -0.00168725 1e-05
0.00400287 -0.00175044 1e-05
0.00407108 -0.00185327 1e-05
0.00413888 -0.00195638 1e-05
0.00420625 -0.00205978 1e-05
0.00427333 -0.00216335 1e-05
0.00434393 -0.00227303 1e-05
0.00434997 -0.00228249 1e-05
0.00435601 -0.00229194 1e-05
0.00436205 -0.0023014 1e-05
0.00436808 -0.00231086 1e-05
0.0043741 -0.0023203 1e-05
0.00445494 -0.00244725 1e-05
0.00453534 -0.00257449 1e-05
0.00461534 -0.00270197 1e-05
0.00469498 -0.00282968 1e-05
0.00477286 -0.00295498 1e-05
0.0047995 -0.002998 1e-05
0.00482612 -0.00304104 1e-05
0.00485272 -0.0030841 1e-05
0.00487931 -0.00312716 1e-05
0.00490609 -0.00317055 1e-05
0.00496672 -0.00326876 1e-05
0.0050272 -0.00336707 1e-05
0.00508754 -0.00346547 1e-05
0.00514774 -0.00356396 1e-05
0.00520738 -0.00366161 1e-05
0.00526043 -0.00374852 1e-05
0.00531344 -0.00383546 1e-05
0.00536641 -0.00392242 1e-05
0.0054194 -0.00400936 1e-05
0.00547262 -0.00409657 1e-05
0.00551559 -0.00416688 1e-05
0.00555853 -0.00423721 1e-05
0.00560143 -0.00430756 1e-05
0.00564432 -0.00437792 1e-05
0.00568714 -0.00444811 1e-05
0.00575842 -0.00456486 1e-05
0.00582975 -0.00468158 1e-05
0.00590113 -0.00479828 1e-05
0.00597264 -0.00491489 1e-05
0.00604356 -0.00503006 1e-05
0.00607981 -0.0050887 1e-05
0.00611607 -0.00514733 1e-05
0.00615233 -0.00520596 1e-05
0.00618862 -0.00526458 1e-05
0.00622502 -0.00532326 1e-05
0.0063038 -0.00545003 1e-05
0.00638278 -0.00557669 1e-05
0.00646194 -0.00570322 1e-05
0.00654138 -0.00582959 1e-05
0.00661893 -0.00595213 1e-05
0.00666282 -0.00602105 1e-05
0.00670677 -0.00608993 1e-05
0.00675077 -0.00615877 1e-05
0.00679485 -0.00622756 1e-05
0.00683932 -0.00629671 1e-05
0.00691121 -0.00640813 1e-05
0.00698335 -0.00651939 1e-05
0.00705576 -0.00663048 1e-05
0.00712846 -0.00674138 1e-05
0.00719878 -0.00684785 1e-05
0.00726946 -0.00695409 1e-05
0.00734036 -0.00706018 1e-05
0.00741148 -0.00716612 1e-05
0.00748292 -0.00727185 1e-05
0.00755588 -0.00737909 1e-05
0.00760133 -0.00744541 1e-05
0.00764691 -0.00751165 1e-05
0.00769261 -0.0075778 1e-05
0.00773845 -0.00764385 1e-05
0.00778313 -0.0077079 1e-05
0.00790091 -0.00787588 1e-05
0.00801946 -0.00804332 1e-05
0.00813878 -0.0082102 1e-05
0.0082591 -0.00837636 1e-05
0.00837203 -0.00853027 1e-05
0.00837971 -0.0085406 1e-05
0.00838739 -0.00855092 1e-05
0.00839507 -0.00856124 1e-05
0.00840276 -0.00857155 1e-05
0.00841047 -0.00858189 1e-05
0.00852148 -0.00873057 1e-05
0.00863331 -0.00887864 1e-05
0.00874598 -0.00902607 1e-05
0.00885952 -0.00917283 1e-05
0.00896551 -0.00930796 1e-05
0.00903009 -0.00938923 1e-05
0.00909492 -0.00947029 1e-05
0.00916003 -0.00955114 1e-05
0.00922543 -0.00963175 1e-05
0.00929301 -0.00971438 1e-05
0.00934713 -0.00978004 1e-05
0.00940144 -0.00984553 1e-05
0.00945595 -0.00991086 1e-05
0.00951066 -0.00997602 1e-05
0.0095636 -0.0100387 1e-05
[...]
POINT_DATA 12278
 FIELD attributes 2
p 1 12278 float
177014 177096 177169 177232 177286 177330
108948 108966 108982 108996 109008 109019
87754.2 87763.7 87773.1 87782.3 87791.2 87799.6
79936.5 79942.8 79949 79955.1 79961.2 79967.1
77145.6 77154.8 77164 77173.2 77182.4 77191.7
77562.9 77576.5 77590.1 77603.7 77617.2 77630.8
81096.1 81108.5 81120.8 81132.9 81144.8 81156.6
90922.6 90942.3 90961.4 90979.7 90997.3 91014.1
117355 117387 117418 117446 117472 117496
215473 215284 215092 214898 214702 214503
177014 173409 169082 164503 162837 158905 155523 152872 144707 134666 129223 123794 119856 119245 118393 112348 106448 102327 101432 100565 99582.5 98600.3 97173.6 95705.3 93989.7 93623.3 93256.2 92888.7 92407.7 91910 89990.4 88186.5 86672.5 85885.2 85108.4 84422.7 83757.9 83108.1 82456.3 81622.4 81587.4 81558.5 81530.5 81502.5 81473.6 80940.9 80408.6 79876.8 79345.5 78920.4 78494.1 78085 77687.3 77311.7 76945.7 76595.8 76245.5 75921.8 75620.3 75319.2 75029.7 74740.1 74461.5 74198.7 73936.1 73682.5 73428.7 73178.7 72942.5 72706.5 72477.5 72248.6 72018.1 71798.6 71579.4 71365.8 71152.2 70933.6 70722.8 70512.1 70304.9 70098 69885.1 69672.6 69460.5 69248.6 69037.1 68821.9 68593.9 68366.3 68133.4 67897.7 67653.6 67401 67135.1 66854.8 66541 66228.9 65918.2 65605.2 65605 65604.7 65604.4 65604.1 65603.8 65212.6 64827.1 64447.3 64049.2 63569.1 63053.6 62543.9 61842.8 61069.7 60256.6 60008.3 59770.3 59543.3 59316.8 59131.4 58574.6 58015.5 57454.4 56981.1 56512.8 55908.2 55305.5 54765.7 54224.6 53840.1 53782 53723.8 53668.5 53620.9 53572.7 53019.5 52459.1 51941.1 51468.8 50923.4 50922.3 50921.3 50920.4 50919.6 50918.8 50491.6 50057 49654.6 49319.1 49050.1 48950.8 48851.2 48780.3 48710.7 48638 48449.6 48258.8 48066.2 47921.8 47789.7 47617 47448.3 47308.6 47166.9 47007.6 47001.2 46994.8 46988.4 46982.6 46977.1 46871.7 46759.5 46644.7 46531.4 46424.5 46388.9 46352.2 46312.6 46272.2 46228.4 46208.3 46188 46167.6 46146.4 46125.4 46100 46073.3 46036.2 45993.9 45952.4 45954.8 45956.9 45956.2 45955.4 45954.4 45943.1 45931.4 45919.3 45904.2 45889 45898.8 45907.9 45912.5 45916.4 45920.1 45919.3 45918.4 45917.6 45916.5 45915.5 45929 45942.6 45955.3 45966 45976.3 45986.6 45996.8 46006.6 46016.3 46026.1 46037.7 46049 46060.3 46071.3 46082.3 46100.7 46119.1 46137.6 46156.1 46174.7 46183.3 46191.8 46200.5 46209.6 46218.7 46241.4 46264.2 46287.5 46311.4 46335.2 46342.6 46350 46357.7 46366 46374.3 46397.5 46420.8 46445 46470.2 46495 46503.9 46512.8 46522.5 46532.7 46543 46562.6 46582.4 46602.8 46624.7 46645.9 46659.8 46673.7 46689.4 46705.7 46722.4 46734 46745.5 46757.2 46769.9 46782.3 46804.2 46826.4 46851.8 46878 46904 46905.1 46906.2 46907.6 46908.9 46910.3 46931.5 46952.9 46974.7 46998.6 47020.9 47030.5 47040.1 47051.1 47062.1 47073.6 47083.3 47093 47102.8 47113.2 47123.3 47140.5 47157.9 47176.8 47196.7 47216 47218.6 47221.2 47224.2 47227.1 47230.1 47244.4 47258.9 47273.4 47289 47303.9 47317.7 47331.9 47347.4 47363 47379.8 47379.9 47380 47380.1 47380.2 47380.2 47394.8 47409.6 47424.4 47440.3 47455.5 47467.6 47480.1 47493.7 47507.4 47520.6 47521.2 47521.8 47522.5 47523.2 47523.9 47535.6 47547.5 47559.4 47572 47584.5 47594.8 47605.1 47616.8 47628.9 47641 47645 47649.4 47654 47658.7 47663.6 47669.4 47675.3 47681.2 47687.3 47693.7 47702.5 47711.6 47721.4 47732.3 47742.7 47750.3 47758.4 47767.3 47776.3 47785.4 47787.6 47790 47792.5 47795.1 47797.7 47803.1 47808.4 47813.8 47819.3 47825.4 47831.6 47838.2 47845.1 47853.1 47861 47866 47871.1 47877.3 47884 47890.7 47894.3 47899 47903.6 47908.3 47913.6 47913.8 47914.1 47914.3 47914.6 47914.9 47919 47923.1 47927.3 47931.4 47936.4 47938.8 47941.3 47944.3 47948.2 47952 47953.2 47954.3 47956.2 47959 47961.7 47961.6 47962.1 47963 47963.8 47965.3 47964.5 47964.2 47963.9 47963.6 47963.2 47963.2 47963.2 47963.2 47963.1 47963.2 47961.8 47960.5 47959.1 47957.7 47957 47953.8 47951.2 47948.7 47946.4 47944.6 47940.2 47935.9 47932.2 47929.1 47926.1 47920.6 47915 47910.1 47905.8 47901.6 47894.9 47888.3 47882.3 47876.6 47871.1 47863.4 47855.9 47848.7 47841.5 47834.8 47826.1 47817.7 47809.3 47800.9 47792.8 47784.3 47775.8 47767.4 47758.9 47749 47748.3 47747.6 47746.8 47746.1 47745.4 47734.9 47724.5 47714 47703.5 47693.2 47681.5 47670 47658.5 47647 47635.7 47622.7 47610.2 47597.7 47585.2 47573 47559 47545.4 47531.9 47518.5 47505.2 47490.4 47475.7 47461.3 47447 47432.7 47417 47401.2 47386 47370.8 47355.6 47339 47322.5 47306.2 47290.1 47274.1 47256.7 47239.4 47222.2 47205.3 47188.3 47170.3 47152.2 47134.1 47116.4 47098.6 47079.8 47061 47042.2 47023.7 47005.2 46985.7 46966.2 46946.6 46927.3 46908.1 46888 46867.8 46847.6 46827.5 46807.6 46786.9 46766.1 46745.3 46724.5 46704 46682.7 46661.3 46639.8 46618.4 46597.3 46575.4 46553.5 46531.5 46509.5 46487.7 46465.4 46442.9 46420.3 46397.8 46375.5 46352.7 46329.7 46306.6 46283.6 46260.8 46237.5 46214 46190.5 46167 46143.7 46119.9 46096 46072.1 46048.2 46024.4 46000.2 45975.9 45951.6 45927.3 45903 45878.4 45853.7 45829 45804.3 45779.7 45754.7 45729.7 45704.6 45679.5 45654.5 45629.2 45603.8 45578.4 45553 45527.7 45502 45476.3 45450.6 45424.9 45399.2 45373.2 45347.2 45321.2 45295.2 45269.2 45242.9 45216.6 45190.3 45164 45137.7 45111.2 45084.7 45058.1 45031.5 45005 44978.2 44951.4 44924.5 44897.7 44870.9 44843.9 44816.8 44789.8 44762.7 44735.7 44708.4 44681.1 44653.8 44626.5 44599.3 44571.8 44544.3 44516.8 44489.3 44461.8 44434.1 44406.4 44378.7 44350.9 44323.2 44295.3 44267.4 44239.5 44211.6 44183.7 44155.6 44127.5 44099.4 44071.3 44043.2 44014.9 43986.6 43958.3 43930 43901.7 43873.3 43844.8 43816.3 43787.8 43759.3 43730.7 43702.1 43673.4 43644.7 43616.1 43587.3 43558.4 43529.6 43500.8 43471.9 43442.9 43413.9 43384.9 43355.9 43326.9 43297.8 43268.6 43239.4 43210.2 43181 43151.7 43122.4 43093 43063.7 43034.3 43004.8 42975.3 42945.8 42916.2 42886.7 42857 42827.4 42797.7 42768 42738.3 42708.4 42678.6 42648.7 42618.8 42589 42559 42528.9 42498.9 42468.8 42438.8 42408.6 42378.4 42348.2 42318 42287.7 42257.4 42227 42196.6 42166.2 42135.8 42105.3 42074.7 42044.1 42013.6 41983 41952.3 41921.5 41890.8 41860 41829.2 41798.3 41767.4 41736.5 41705.5 41674.6 41643.5 41612.4 41581.2 41550.1 41518.9 41487.7 41456.4 41425 41393.7 41362.4 41330.9 41299.4 41267.9 41236.4 41204.8 41173.2 41141.5 41109.7 41078 41046.3 41014.4 40982.5 40950.6 40918.7 40886.7 40854.7 40822.5 40790.4 40758.3 40726.1 40693.9 40661.5 40629.2 40596.9 40564.5 40532 40499.5 40466.9 40434.4 40401.8 40369.1 40336.3 40303.5 40270.8 40238 40205 40172.1 40139.1 40106.1 40073 40039.9 40006.7 39973.5 39940.3 39907 39873.6 39840.2 39806.7 39773.3 39739.8 39706.2 39672.5 39638.8 39605.1 39571.4 39537.6 39503.6 39469.7 39435.8 39401.8 39367.7 39333.6 39299.4 39265.3 39231.1 39196.7 39162.3 39127.9 39093.5 39059.1 39024.5 38989.8 38955.2 38920.5 38885.8 38851 38816.1 38781.2 38746.3 38711.3 38676.2 38641.1 38605.9 38570.7 38535.5 38500.2 38464.7 38429.3 38393.9 38358.4 38322.8 38287.1 38251.4 38215.7 38180 38144.1 38108.2 38072.2 38036.3 38000.2 37964.1 37927.9 37891.7 37855.4 37819.1 37782.7 37746.2 37709.8 37673.3 37636.7 37600 37563.2 37526.5 37489.7 37452.8 37415.9 37378.8 37341.8 37304.7 37267.6 37230.3 37193 37155.7 37118.3 37080.9 37043.4 37005.8 36968.2 36930.6 36892.9 36855 36817.2 36779.2 36741.3 36703.3 36665.2 36627.1 36588.9 36550.6 36512.4 36473.9 36435.5 36397 36358.5 36319.9 36281.2 36242.4 36203.7 36164.8 36126 36087 36047.9 36008.8 35969.7 35930.5 35891.2 35851.9 35812.5 35773.1 35733.6 35694 35654.3 35614.6 35574.9 35535.1 35495.2 35455.2 35415.2 35375.2 35335.1 35294.9 35254.6 35214.3 35173.9 35133.6 35093 35052.4 35011.8 34971.1 34930.4 34889.6 34848.7 34807.7 34766.7 34725.7 34684.5 34643.3 34602.1 34560.8 34519.4 34477.9 34436.4 34394.8 34353.2 34311.5 34269.7 34227.9 34186 34144 34102 34059.9 34017.7 33975.5 33933.2 33890.9 33848.4 33805.9 33763.3 33720.7 33678.1 33635.3 33592.4 33549.6 33506.6 33463.6 33420.5 33377.3 33334.1 33290.8 33247.5 33204 33160.5 33117 33073.3 33029.7 32985.9 32942.1 32898.2 32854.2 32810.2 32766.1 32721.9 32677.6 32633.3 32589 32544.5 32500 32455.4 32410.7 32366.1 32321.2 32276.4 32231.4 32186.4 32141.4 32096.2 32051 32005.7 31960.4 31915 31869.5 31823.9 31778.3 31732.5 31686.8 31640.9 31595 31549 31503 31456.9 31410.6 31364.3 31318 31271.6 31225.1 31178.5 31131.9 31085.2 31038.4 30991.6 30944.6 30897.6 30850.5 30803.4 30756.2 30708.9 30661.5 30614.1 30566.5 30519 30471.3 30423.6 30375.7 30327.9 30280 30231.9 30183.8 30135.6 30087.3 30039 29990.6 29942.1 29893.5 29844.9 29796.2 29747.4 29698.5 29649.6 29600.6 29551.5 29502.3 29453.1 29403.7 29354.3 29304.9 29255.3 29205.7 29156 29106.2 29056.4 29006.4 28956.3 28906.2 28856.1 28805.9 28755.5 28705 28654.5 28604 28553.4 28502.6 28451.8 28400.9 28349.9 28298.9 28247.7 28196.5 28145.2 28093.8 28042.4 27990.8 27939.2 27887.5 27835.7 27783.9 27731.9 27679.8 27627.7 27575.5 27523.3 27470.8 27418.4 27365.8 27313.2 27260.6 27207.7 27154.9 27101.9 27048.9 26995.8 26942.5 26889.2 26835.8 26782.4 26728.9 26675.2 26621.5 26567.7 26513.8 26459.9 26405.8 26351.6 26297.4 26243.1 26188.8 26134.2 26079.6 26025 25970.3 25915.6 25860.7 25805.7 25750.7 25695.6 25640.5 25585.2 25529.9 25474.5 25419.1 25363.7 25308.1 25252.4 25196.8 25141.2 25085.6 25029.7 24973.9 24918.2 24862.4 24806.7 24750.8 24695 24639.3 24583.6 24528 24472.2 24417 24361.8 24306.8 24252.1 24197.4 24142.4 24087.4 24032.4 23977 23922.3 23873.7 23825 23776.4 23732.6 23683.5 23618.1 23552.7 23487.2 23412.7 23361.5 23331.1 23301 23271.3 23257 23252.9 23248.7 23244.6 23240.4 23238.9 23236.3 23231 23225.7 23220.5 23214.7 23187.8 23160.6 23133.1 23105.5 23061.8 22985.9 22917 22848 22779.2 22722.9 22671.7 22615.4 22559.1 22502.7 22440 22372.3 22304.2 22236.1 22168 22099.5 22028.2 21955 21881.8 21808.5 21733.2 21655 21575.2 21495.4 21415.6 21334.2 21249.9 21163.8 21077.6 20991.4 20903.5 20812.5 20719.6 20626.6 20533.6 20438.8 20340.7 20240.5 20140.1 20039.8 19937.4 19831.5 19723.4 19615.1 19506.7 19396.2 19281.9 19164.8 19047.6 18930.2 18810.5 18686.5 18559.7 18432.8 18305.8 18176.4 18042.3 17904.4 17766.2 17627.8 17486 17339 17189.3 17039.5 16889.5 16737.3 16579.4 16414.9 16250 16084.7 15913.3 15735.5 15557.4 15379.2 15201.1 15023 14838.4 14638.9 14438.5 14237.4 14022.2 13799 13585.9 13373.4 13161.4 12960.1 12751.2 12503.7 12253.9 12002.1 11712.8 11412.6 11157.3 10904.8 10655 10450.3 10237.7 9921.7 9598.12 9265.96 8833.28 8384.3 8071.55 7773.93 7494.34 7349.24 7198.2 6801.72 6357.26 5839.02 5089.65 4311.37 3779.22 3398.3 3250.94 3316.67 3382.97 3362.01 2777.14 1388.16 0