# vtk DataFile Version 2.0
track0
ASCII
DATASET POLYDATA
POINTS 12278 float
-0.0205 0.001 1e-05
-0.02052 0.000999216 1e-05
-0.02054 0.000998592 1e-05
-0.02056 0.000998126 1e-05
-0.02058 0.000997818 1e-05
-0.0206 0.000997665 1e-05
-0.0205 0.00367778 1e-05
-0.02052 0.00367703 1e-05
-0.02054 0.00367643 1e-05
-0.02056 0.00367599 1e-05
-0.02058 0.00367569 1e-05
-0.0206 0.00367554 1e-05
-0.0205 0.00635556 1e-05
-0.02052 0.00635527 1e-05
-0.02054 0.00635505 1e-05
-0.02056 0.00635488 1e-05
-0.02058 0.00635476 1e-05
-0.0206 0.00635471 1e-05
-0.0205 0.00903333 1e-05
-0.02052 0.00903311 1e-05
-0.02054 0.00903293 1e-05
-0.02056 0.0090328 1e-05
-0.02058 0.00903271 1e-05
-0.0206 0.00903266 1e-05
-0.0205 0.0117111 1e-05
-0.02052 0.0117111 1e-05
-0.02054 0.011711 1e-05
-0.02056 0.011711 1e-05
-0.02058 0.011711 1e-05
-0.0206 0.011711 1e-05
-0.0205 0.0143889 1e-05
-0.02052 0.014389 1e-05
-0.02054 0.014389 1e-05
-0.02056 0.0143891 1e-05
-0.02058 0.0143891 1e-05
-0.0206 0.0143891 1e-05
-0.0205 0.0170667 1e-05
-0.02052 0.017067 1e-05
-0.02054 0.0170672 1e-05
-0.02056 0.0170674 1e-05
-0.02058 0.0170675 1e-05
-0.0206 0.0170676 1e-05
-0.0205 0.0197444 1e-05
-0.02052 0.019745 1e-05
-0.02054 0.0197454 1e-05
-0.02056 0.0197457 1e-05
-0.02058 0.0197459 1e-05
-0.0206 0.019746 1e-05
-0.0205 0.0224222 1e-05
-0.02052 0.022423 1e-05
-0.02054 0.0224236 1e-05
-0.02056 0.0224241 1e-05
-0.02058 0.0224244 1e-05
-0.0206 0.0224245 1e-05
-0.0205 0.0251 1e-05
-0.02052 0.0251003 1e-05
-0.02054 0.0251005 1e-05
-0.02056 0.0251007 1e-05
-0.02058 0.0251008 1e-05
-0.0206 0.0251008 1e-05
-0.0205 0.001 1e-05
-0.0203632 0.00100536 1e-05
-0.0202266 0.00101331 1e-05
-0.0200901 0.00102296 1e-05
-0.0200427 0.00102682 1e-05
-0.0198376 0.00104418 1e-05
-0.0196338 0.00107322 1e-05
-0.0194327 0.00111734 1e-05
-0.0192368 0.00118024 1e-05
-0.0190172 0.00124951 1e-05
-0.0189002 0.00128348 1e-05
-0.0187827 0.00131598 1e-05
-0.0186649 0.001347 1e-05
-0.0185469 0.001377 1e-05
-0.0183807 0.00141936 1e-05
-0.0182041 0.00146458 1e-05
-0.0180267 0.00150692 1e-05
-0.0178487 0.0015464 1e-05
-0.0176703 0.00158389 1e-05
-0.0174976 0.00161991 1e-05
-0.0172846 0.00166394 1e-05
-0.0170715 0.00170741 1e-05
-0.0168583 0.00175029 1e-05
-0.0166449 0.00179219 1e-05
-0.0163945 0.00184007 1e-05
-0.0163234 0.00185324 1e-05
-0.0162522 0.00186629 1e-05
-0.016181 0.00187921 1e-05
-0.0161097 0.00189201 1e-05
-0.0160387 0.0019046 1e-05
-0.0157586 0.0019535 1e-05
-0.0154779 0.00199931 1e-05
-0.0151968 0.00204225 1e-05
-0.0149154 0.00208283 1e-05
-0.0146381 0.00212134 1e-05
-0.0143838 0.00215527 1e-05
-0.0141293 0.00218766 1e-05
-0.0138747 0.00221855 1e-05
-0.0136198 0.00224797 1e-05
-0.0132934 0.00228369 1e-05
-0.0132791 0.00228515 1e-05
-0.0132648 0.0022866 1e-05
-0.0132504 0.00228805 1e-05
-0.0132361 0.0022895 1e-05
-0.0132214 0.00229098 1e-05
-0.0129776 0.00231543 1e-05
-0.0127337 0.00233865 1e-05
-0.0124897 0.00236061 1e-05
-0.0122456 0.0023813 1e-05
-0.0120025 0.00240058 1e-05
-0.0117547 0.00241909 1e-05
-0.0115067 0.00243627 1e-05
-0.0112587 0.00245231 1e-05
-0.0110106 0.00246734 1e-05
-0.0107632 0.00248136 1e-05
-0.0105252 0.00249391 1e-05
-0.0102872 0.00250547 1e-05
-0.0100491 0.00251602 1e-05
-0.00981105 0.00252575 1e-05
-0.00957337 0.00253471 1e-05
-0.00934491 0.00254261 1e-05
-0.00911643 0.00254974 1e-05
-0.00888792 0.0025561 1e-05
-0.0086594 0.00256172 1e-05
-0.00843108 0.00256668 1e-05
-0.00821175 0.00257085 1e-05
-0.00799241 0.00257439 1e-05
-0.00777306 0.00257731 1e-05
-0.0075537 0.00257953 1e-05
-0.00733443 0.00258115 1e-05
-0.00712387 0.00258213 1e-05
-0.0069133 0.00258256 1e-05
-0.00670273 0.00258243 1e-05
-0.00649216 0.00258162 1e-05
-0.0062816 0.00258018 1e-05
-0.00607944 0.00257819 1e-05
-0.0058773 0.00257566 1e-05
-0.00567516 0.00257257 1e-05
-0.00547303 0.00256875 1e-05
-0.00527083 0.0025642 1e-05
-0.00507675 0.00255913 1e-05
-0.00488269 0.00255343 1e-05
-0.00468865 0.00254711 1e-05
-0.00449464 0.00253998 1e-05
-0.00430044 0.00253191 1e-05
-0.00411412 0.0025233 1e-05
-0.00392784 0.00251389 1e-05
-0.00374159 0.00250369 1e-05
-0.0035554 0.00249255 1e-05
-0.00336883 0.00248017 1e-05
-0.00318995 0.00246712 1e-05
-0.00301115 0.002453 1e-05
-0.00283245 0.00243775 1e-05
-0.00265386 0.00242122 1e-05
-0.00247443 0.00240315 1e-05
-0.0023027 0.00238426 1e-05
-0.00213114 0.00236385 1e-05
-0.00195982 0.00234155 1e-05
-0.00178875 0.00231739 1e-05
-0.00161577 0.00229107 1e-05
-0.00161566 0.00229105 1e-05
-0.00161556 0.00229103 1e-05
-0.00161545 0.00229101 1e-05
-0.00161534 0.002291 1e-05
-0.00161523 0.00229098 1e-05
-0.00145047 0.00226407 1e-05
-0.00128611 0.00223482 1e-05
-0.00112217 0.00220326 1e-05
-0.000958683 0.00216948 1e-05
-0.000791418 0.00213238 1e-05
-0.000633135 0.00209426 1e-05
-0.000475556 0.00205334 1e-05
-0.000318719 0.00200965 1e-05
-0.000162835 0.00196268 1e-05
0 0.00190953 1e-05
3.73467e-05 0.00189633 1e-05
7.45934e-05 0.00188284 1e-05
0.000111741 0.00186909 1e-05
0.000148792 0.00185508 1e-05
0.000179106 0.00184338 1e-05
0.000248962 0.00181594 1e-05
0.000318408 0.00178748 1e-05
0.000387428 0.001758 1e-05
0.000456009 0.00172752 1e-05
0.000528387 0.00169414 1e-05
0.000634886 0.00164316 1e-05
0.000740278 0.00158993 1e-05
0.00084451 0.00153447 1e-05
0.00094762 0.00147694 1e-05
0.0010199 0.00143469 1e-05
0.0010281 0.00142973 1e-05
0.00103628 0.00142476 1e-05
0.00104446 0.00141978 1e-05
0.00105263 0.00141478 1e-05
0.00106088 0.00140971 1e-05
0.00116821 0.00134352 1e-05
0.00127404 0.00127496 1e-05
0.00137827 0.00120401 1e-05
0.00148099 0.00113088 1e-05
0.0015967 0.00104511 1e-05
0.00159686 0.00104498 1e-05
0.00159703 0.00104485 1e-05
0.00159719 0.00104473 1e-05
0.00159735 0.0010446 1e-05
0.00159752 0.00104447 1e-05
0.00169218 0.000970903 1e-05
0.00178545 0.000895567 1e-05
0.00187723 0.000818431 1e-05
0.0019676 0.000739642 1e-05
0.00203799 0.000676367 1e-05
0.00205806 0.000657876 1e-05
0.00207804 0.000639296 1e-05
0.00209794 0.000620626 1e-05
0.00211778 0.000601893 1e-05
0.00213833 0.000582376 1e-05
0.00219146 0.00053156 1e-05
0.00224409 0.000480227 1e-05
0.00229621 0.000428368 1e-05
0.0023478 0.00037598 1e-05
0.00239409 0.000328255 1e-05
0.00245194 0.000267791 1e-05
0.00250916 0.000206728 1e-05
0.00256574 0.000145081 1e-05
0.00262182 8.29682e-05 1e-05
0.00268334 1.36415e-05 1e-05
0.00268571 1.09132e-05 1e-05
0.00268808 8.18386e-06 1e-05
0.00269046 5.45355e-06 1e-05
0.00269283 2.72222e-06 1e-05
0.00269519 0 1e-05
0.00275908 -7.37368e-05 1e-05
0.00282236 -0.000148005 1e-05
0.002885 -0.000222813 1e-05
0.00294698 -0.000298173 1e-05
0.00300405 -0.000368654 1e-05
0.00304976 -0.000425938 1e-05
0.00309515 -0.000483467 1e-05
0.00314024 -0.000541238 1e-05
0.00318508 -0.000599205 1e-05
0.00323259 -0.000661185 1e-05
0.00325063 -0.000684967 1e-05
0.00326862 -0.000708788 1e-05
0.00328656 -0.00073265 1e-05
0.00330445 -0.000756551 1e-05
0.00332199 -0.00078009 1e-05
0.00339013 -0.000871877 1e-05
0.00345767 -0.000964107 1e-05
0.00352459 -0.00105679 1e-05
0.00359097 -0.00114986 1e-05
0.00365383 -0.00123896 1e-05
0.00368029 -0.00127685 1e-05
0.00370667 -0.0013148 1e-05
0.00373297 -0.0013528 1e-05
0.00375922 -0.00139084 1e-05
0.00378611 -0.00142991 1e-05
0.00383009 -0.00149402 1e-05
0.00387385 -0.00155828 1e-05
0.0039174 -0.00162269 1e-05
0.00396072 -0.00168725 1e-05
0.00400287 -0.00175044 1e-05
0.00407108 -0.00185327 1e-05
0.00413888 -0.00195638 1e-05
0.00420625 -0.00205978 1e-05
0.00427333 -0.00216335 1e-05
0.00434393 -0.00227303 1e-05
0.00434997 -0.00228249 1e-05
0.00435601 -0.00229194 1e-05
0.00436205 -0.0023014 1e-05
0.00436808 -0.00231086 1e-05
0.0043741 -0.0023203 1e-05
0.00445494 -0.00244725 1e-05
0.00453534 -0.00257449 1e-05
0.00461534 -0.00270197 1e-05
0.00469498 -0.00282968 1e-05
0.00477286 -0.00295498 1e-05
0.0047995 -0.002998 1e-05
0.00482612 -0.00304104 1e-05
0.00485272 -0.0030841 1e-05
0.00487931 -0.00312716 1e-05
0.00490609 -0.00317055 1e-05
0.00496672 -0.00326876 1e-05
0.0050272 -0.00336707 1e-05
0.00508754 -0.00346547 1e-05
0.00514774 -0.00356396 1e-05
0.00520738 -0.00366161 1e-05
0.00526043 -0.00374852 1e-05
0.00531344 -0.00383546 1e-05
0.00536641 -0.00392242 1e-05
0.0054194 -0.00400936 1e-05
0.00547262 -0.00409657 1e-05
0.00551559 -0.00416688 1e-05
0.00555853 -0.00423721 1e-05
0.00560143 -0.00430756 1e-05
0.00564432 -0.00437792 1e-05
0.00568714 -0.00444811 1e-05
0.00575842 -0.00456486 1e-05
0.00582975 -0.00468158 1e-05
0.00590113 -0.00479828 1e-05
0.00597264 -0.00491489 1e-05
0.00604356 -0.00503006 1e-05
0.00607981 -0.0050887 1e-05
0.00611607 -0.00514733 1e-05
0.00615233 -0.00520596 1e-05
0.00618862 -0.00526458 1e-05
0.00622502 -0.00532326 1e-05
0.0063038 -0.00545003 1e-05
0.00638278 -0.00557669 1e-05
0.00646194 -0.00570322 1e-05
0.00654138 -0.00582959 1e-05
0.00661893 -0.00595213 1e-05
0.00666282 -0.00602105 1e-05
0.00670677 -0.00608993 1e-05
0.00675077 -0.00615877 1e-05
0.00679485 -0.00622756 1e-05
0.00683932 -0.00629671 1e-05
0.00691121 -0.00640813 1e-05
0.00698335 -0.00651939 1e-05
0.00705576 -0.00663048 1e-05
0.00712846 -0.00674138 1e-05
0.00719878 -0.00684785 1e-05
0.00726946 -0.00695409 1e-05
0.00734036 -0.00706018 1e-05
0.00741148 -0.00716612 1e-05
0.00748292 -0.00727185 1e-05
0.00755588 -0.00737909 1e-05
0.00760133 -0.00744541 1e-05
0.00764691 -0.00751165 1e-05
0.00769261 -0.0075778 1e-05
0.00773845 -0.00764385 1e-05
0.00778313 -0.0077079 1e-05
0.00790091 -0.00787588 1e-05
0.00801946 -0.00804332 1e-05
0.00813878 -0.0082102 1e-05
0.0082591 -0.00837636 1e-05
0.00837203 -0.00853027 1e-05
0.00837971 -0.0085406 1e-05
0.00838739 -0.00855092 1e-05
0.00839507 -0.00856124 1e-05
0.00840276 -0.00857155 1e-05
0.00841047 -0.00858189 1e-05
0.00852148 -0.00873057 1e-05
0.00863331 -0.00887864 1e-05
0.00874598 -0.00902607 1e-05
0.00885952 -0.00917283 1e-05
0.00896551 -0.00930796 1e-05
0.00903009 -0.00938923 1e-05
0.00909492 -0.00947029 1e-05
0.00916003 -0.00955114 1e-05
0.00922543 -0.00963175 1e-05
0.00929301 -0.00971438 1e-05
0.00934713 -0.00978004 1e-05
0.00940144 -0.00984553 1e-05
0.00945595 -0.00991086 1e-05
0.00951066 -0.00997602 1e-05
0.0095636 -0.0100387 1e-05
[...]
POINT_DATA 12278
 FIELD attributes 1
U 3 12278 float
9.72339 	0.381311 	0 9.77871 	0.305049 	0 9.83405 	0.228765 	0 9.8894 	0.152465 	0 9.94476 	0.0761532 	0 10 	0 	0
10.0671 	0.375483 	0 10.0537 	0.300387 	0 10.0403 	0.225271 	0 10.0268 	0.150141 	0 10.0134 	0.0750008 	0 10 	0 	0
10.0364 	0.141572 	0 10.0291 	0.113304 	0 10.0218 	0.085089 	0 10.0145 	0.0569263 	0 10.0071 	0.0288164 	0 10 	0 	0
10.0137 	0.111519 	0 10.011 	0.0892151 	0 10.0082 	0.0669108 	0 10.0055 	0.0446062 	0 10.0027 	0.0223012 	0 10 	0 	0
10.0097 	0.0196534 	0 10.0078 	0.0157227 	0 10.0058 	0.0117921 	0 10.0039 	0.00786137 	0 10.0019 	0.00393067 	0 10 	0 	0
10.0102 	-0.0372875 	0 10.0082 	-0.02983 	0 10.0061 	-0.0223725 	0 10.0041 	-0.0149149 	0 10.002 	-0.0074574 	0 10 	0 	0
10.0174 	-0.148997 	0 10.0139 	-0.119197 	0 10.0105 	-0.0893967 	0 10.007 	-0.0595953 	0 10.0035 	-0.0297932 	0 10 	0 	0
10.0362 	-0.265901 	0 10.029 	-0.212721 	0 10.0217 	-0.159534 	0 10.0145 	-0.106342 	0 10.0072 	-0.053146 	0 10 	0 	0
10.0563 	-0.387167 	0 10.045 	-0.309734 	0 10.0338 	-0.23228 	0 10.0225 	-0.15481 	0 10.0112 	-0.0773282 	0 10 	0 	0
8.30133 	-0.114495 	0 8.4287 	-0.091596 	0 8.55659 	-0.0686962 	0 8.68498 	-0.0457957 	0 8.81385 	-0.0228949 	0 8.94315 	0 	0
9.72339 	0.381311 	0 9.5415 	0.555241 	0 9.39671 	0.663651 	0 9.26203 	0.754271 	0 9.2183 	0.780385 	0 8.95344 	1.27614 	0 8.70578 	1.91036 	0 8.48173 	2.72184 	0 8.46724 	2.67123 	0 8.47252 	2.45986 	0 8.50117 	2.35314 	0 8.52498 	2.2443 	0 8.51221 	2.16311 	0 8.42487 	2.14738 	0 8.30214 	2.12559 	0 8.30117 	1.9821 	0 8.28715 	1.83798 	0 8.21181 	1.72569 	0 8.035 	1.67507 	0 7.86306 	1.62575 	0 7.68323 	1.56759 	0 7.50177 	1.50875 	0 7.42793 	1.45839 	0 7.36148 	1.40771 	0 7.27865 	1.34671 	0 7.22249 	1.32376 	0 7.16614 	1.3007 	0 7.10958 	1.27753 	0 7.07928 	1.2544 	0 7.05291 	1.23121 	0 6.97394 	1.13838 	0 6.88841 	1.05226 	0 6.79883 	0.980329 	0 6.71191 	0.932083 	0 6.6228 	0.883658 	0 6.55089 	0.833774 	0 6.49228 	0.787587 	0 6.44246 	0.743855 	0 6.3887 	0.69909 	0 6.31694 	0.642266 	0 6.31477 	0.640171 	0 6.3132 	0.638346 	0 6.31172 	0.636559 	0 6.31022 	0.634771 	0 6.30868 	0.632932 	0 6.27132 	0.597062 	0 6.23151 	0.560863 	0 6.18922 	0.524332 	0 6.1444 	0.487463 	0 6.10943 	0.456253 	0 6.07602 	0.42097 	0 6.0457 	0.390996 	0 6.017 	0.364552 	0 5.99443 	0.339601 	0 5.97315 	0.315197 	0 5.95246 	0.289063 	0 5.92972 	0.26272 	0 5.91348 	0.241659 	0 5.90339 	0.222655 	0 5.89182 	0.203588 	0 5.87917 	0.183521 	0 5.86498 	0.163354 	0 5.85626 	0.14379 	0 5.85336 	0.127402 	0 5.84919 	0.110986 	0 5.84296 	0.0943514 	0 5.83549 	0.0776751 	0 5.8334 	0.0589728 	0 5.8363 	0.043099 	0 5.83799 	0.0272257 	0 5.83716 	0.011928 	0 5.83534 	-0.00343872 	0 5.8392 	-0.02254 	0 5.84731 	-0.0400314 	0 5.85424 	-0.0574687 	0 5.8586 	-0.0735356 	0 5.86184 	-0.0895765 	0 5.8712 	-0.110965 	0 5.88467 	-0.132502 	0 5.89664 	-0.153969 	0 5.90649 	-0.173335 	0 5.91506 	-0.192632 	0 5.92938 	-0.218091 	0 5.94826 	-0.247047 	0 5.96526 	-0.275863 	0 5.9812 	-0.302095 	0 5.99549 	-0.328178 	0 6.01453 	-0.359792 	0 6.03863 	-0.400956 	0 6.06024 	-0.441876 	0 6.08257 	-0.480339 	0 6.10477 	-0.520961 	0 6.13008 	-0.567617 	0 6.15456 	-0.61969 	0 6.17868 	-0.6795 	0 6.20606 	-0.738493 	0 6.23741 	-0.811884 	0 6.26488 	-0.884739 	0 6.28853 	-0.957056 	0 6.30864 	-1.02977 	0 6.30866 	-1.02982 	0 6.30868 	-1.0299 	0 6.3087 	-1.02997 	0 6.30871 	-1.03004 	0 6.30873 	-1.03012 	0 6.33252 	-1.12728 	0 6.35105 	-1.22235 	0 6.36446 	-1.31535 	0 6.37522 	-1.41403 	0 6.38849 	-1.53822 	0 6.40629 	-1.66396 	0 6.41785 	-1.78761 	0 6.40573 	-1.93012 	2.6204e-20 6.36935 	-2.07908 	5.37179e-20 6.3192 	-2.23385 	8.122e-20 6.31099 	-2.28432 	2.33573e-20 6.2988 	-2.33166 	5.80526e-21 6.28244 	-2.37569 	3.12402e-20 6.26551 	-2.41946 	5.72958e-20 6.25117 	-2.45515 	7.91781e-20 6.22478 	-2.551 	1.78936e-19 6.19644 	-2.64628 	2.82855e-19 6.16616 	-2.74098 	3.90907e-19 6.12002 	-2.82212 	2.74289e-19 6.06348 	-2.90245 	6.24789e-20 5.98352 	-3.02211 	4.92618e-20 5.89836 	-3.1388 	3.61791e-20 5.80149 	-3.23664 	8.56259e-21 5.70022 	-3.33255 	-1.80543e-20 5.62528 	-3.39913 	-3.62012e-20 5.61614 	-3.40842 	-3.59935e-20 5.60698 	-3.41771 	-3.57709e-20 5.59773 	-3.42634 	-3.69201e-20 5.58836 	-3.43329 	-4.17205e-20 5.57884 	-3.4403 	-4.65666e-20 5.45895 	-3.53651 	-2.82982e-20 5.33374 	-3.63076 	-9.45694e-21 5.2077 	-3.70771 	1.21984e-22 5.08148 	-3.7666 	-1.94755e-22 4.93244 	-3.83193 	7.07856e-23 4.9322 	-3.83207 	4.0507e-23 4.93195 	-3.8322 	1.02282e-23 4.93173 	-3.83229 	1.79558e-23 4.93152 	-3.83236 	4.50712e-23 4.93131 	-3.83244 	7.21949e-23 4.80559 	-3.88178 	1.1255e-21 4.67578 	-3.92953 	2.48328e-21 4.54884 	-3.96603 	4.21131e-21 4.4312 	-3.98313 	6.33661e-21 4.33587 	-3.9955 	8.20747e-21 4.30555 	-4.00315 	1.33518e-20 4.27501 	-4.01073 	1.8534e-20 4.24972 	-4.01245 	9.21798e-21 4.22456 	-4.01381 	-8.27262e-22 4.19827 	-4.01516 	-1.12422e-20 4.12445 	-4.02247 	-6.36255e-20 4.04945 	-4.02926 	-1.15641e-19 3.97341 	-4.03537 	-1.65838e-19 3.90924 	-4.02984 	-1.01582e-19 3.85042 	-4.02445 	-4.30507e-20 3.77285 	-4.0266 	4.16598e-21 3.69539 	-4.02586 	4.19792e-20 3.62351 	-4.01374 	3.4182e-20 3.55056 	-4.00115 	2.66556e-20 3.46853 	-3.98667 	1.86293e-20 3.46518 	-3.98625 	1.92572e-20 3.46183 	-3.98583 	1.98852e-20 3.45848 	-3.98541 	2.05134e-20 3.45532 	-3.98468 	2.10406e-20 3.45224 	-3.98384 	2.15263e-20 3.38411 	-3.97182 	1.41241e-20 3.31392 	-3.95767 	7.41578e-21 3.24252 	-3.94281 	7.02064e-22 3.17073 	-3.91575 	6.17054e-21 3.1031 	-3.88898 	1.2354e-20 3.06102 	-3.87898 	3.4723e-20 3.01863 	-3.86759 	5.06207e-20 2.97704 	-3.84863 	2.33619e-20 2.93504 	-3.82944 	-3.83993e-21 2.88985 	-3.80875 	-3.2763e-20 2.87171 	-3.80219 	-3.8871e-20 2.85349 	-3.79558 	-4.49813e-20 2.83519 	-3.78892 	-5.10938e-20 2.81699 	-3.77985 	-5.72917e-20 2.79905 	-3.77033 	-6.34082e-20 2.74565 	-3.74927 	-1.07135e-19 2.69142 	-3.72772 	-1.50981e-19 2.63663 	-3.69707 	-1.46193e-19 2.58221 	-3.6597 	-8.81853e-20 2.52968 	-3.62359 	-3.27056e-20 2.51276 	-3.61467 	2.05185e-21 2.4958 	-3.60555 	3.52073e-20 2.47993 	-3.59316 	2.9955e-20 2.464 	-3.58073 	2.47379e-20 2.44759 	-3.56792 	1.94208e-20 2.41704 	-3.54883 	5.65446e-20 2.38624 	-3.52955 	9.35889e-20 2.35518 	-3.51007 	1.30552e-19 2.32518 	-3.48556 	1.03454e-19 2.29577 	-3.46111 	7.22967e-20 2.25884 	-3.43542 	4.24501e-20 2.22146 	-3.40942 	1.25712e-20 2.1869 	-3.37656 	-2.89334e-21 2.1521 	-3.34337 	-1.80968e-20 2.11498 	-3.30804 	-3.41995e-20 2.11126 	-3.30518 	-3.17725e-20 2.10754 	-3.30232 	-2.93483e-20 2.10382 	-3.29945 	-2.69269e-20 2.10031 	-3.29601 	-3.3988e-20 2.09682 	-3.29257 	-4.13464e-20 2.0601 	-3.26029 	-1.64644e-19 2.02438 	-3.22596 	-2.56634e-19 1.98932 	-3.18985 	-2.99659e-19 1.95709 	-3.14896 	-1.93321e-19 1.92533 	-3.10874 	-8.8986e-20 1.91673 	-3.09906 	-7.78978e-20 1.9081 	-3.08936 	-6.68053e-20 1.90077 	-3.07852 	-5.65366e-20 1.89374 	-3.06742 	-4.64585e-20 1.88665 	-3.05623 	-3.63047e-20 1.86471 	-3.03085 	-1.17624e-20 1.84267 	-3.00537 	1.28013e-20 1.82107 	-2.9792 	2.99806e-20 1.80204 	-2.95023 	1.21438e-20 1.78315 	-2.92148 	-5.5295e-21 1.76976 	-2.90252 	-2.1146e-20 1.75634 	-2.88354 	-3.67508e-20 1.7451 	-2.86325 	-1.81184e-20 1.73479 	-2.84245 	1.47104e-20 1.7245 	-2.82161 	4.76458e-20 1.71217 	-2.80442 	1.21398e-20 1.69982 	-2.78721 	-2.3316e-20 1.6881 	-2.76951 	-3.49373e-20 1.67802 	-2.75066 	1.29487e-20 1.66798 	-2.73186 	6.07033e-20 1.65465 	-2.70766 	1.97468e-19 1.64135 	-2.68349 	3.34171e-19 1.63042 	-2.65855 	2.96353e-19 1.62127 	-2.63311 	1.33608e-19 1.61235 	-2.60808 	-2.78288e-20 1.60455 	-2.59472 	-5.73811e-20 1.59675 	-2.58136 	-8.69414e-20 1.58976 	-2.56766 	-8.97893e-20 1.58388 	-2.5535 	-5.6289e-20 1.57802 	-2.53934 	-2.27621e-20 1.56803 	-2.51483 	-2.46234e-20 1.55814 	-2.4904 	-2.65245e-20 1.55021 	-2.46586 	-1.93284e-20 1.54477 	-2.44117 	-4.96758e-22 1.5397 	-2.41736 	1.7754e-20 1.53305 	-2.40287 	2.97267e-20 1.52643 	-2.38841 	4.16947e-20 1.52113 	-2.37372 	4.57268e-20 1.51677 	-2.3589 	4.41039e-20 1.51245 	-2.34403 	4.24511e-20 1.50721 	-2.32429 	2.55711e-20 1.5021 	-2.30467 	8.66544e-21 1.49807 	-2.28525 	-3.12959e-21 1.49672 	-2.2662 	-1.11749e-21 1.49562 	-2.24804 	8.15464e-22 1.48865 	-2.22753 	7.62401e-20 1.48179 	-2.20711 	1.51892e-19 1.47752 	-2.18686 	1.25768e-19 1.47419 	-2.16676 	6.7797e-20 1.47097 	-2.14648 	8.99896e-21 1.46976 	-2.13593 	-2.33774e-20 1.46862 	-2.12544 	-5.57101e-20 1.46773 	-2.11511 	-8.20418e-20 1.46926 	-2.10622 	-3.65042e-20 1.47083 	-2.09765 	7.88474e-21 1.4637 	-2.06744 	4.60779e-21 1.45687 	-2.0375 	1.31306e-21 1.4561 	-2.01093 	-2.34709e-20 1.45667 	-1.98523 	-5.17483e-20 1.45927 	-1.96226 	-7.48931e-20 1.4588 	-1.9603 	-6.85777e-20 1.45833 	-1.95835 	-6.23157e-20 1.45828 	-1.9566 	-6.70434e-20 1.45823 	-1.95485 	-7.17688e-20 1.45819 	-1.95311 	-7.65045e-20 1.45631 	-1.92817 	-2.09578e-19 1.4548 	-1.90354 	-3.41918e-19 1.45403 	-1.87949 	-4.46684e-19 1.45828 	-1.85926 	-1.91226e-19 1.46265 	-1.84089 	4.7106e-20 1.4605 	-1.82599 	1.11153e-19 1.45847 	-1.8112 	1.74991e-19 1.45939 	-1.79852 	1.42304e-19 1.46043 	-1.78595 	1.09717e-19 1.46164 	-1.77313 	7.63126e-20 1.46256 	-1.76355 	6.7379e-20 1.46357 	-1.75405 	5.84675e-20 1.46466 	-1.7446 	4.95782e-20 1.46727 	-1.73642 	5.16531e-20 1.46994 	-1.72865 	5.41707e-20 1.46943 	-1.70538 	2.94799e-20 1.46927 	-1.6824 	4.72721e-21 1.47218 	-1.66184 	2.02554e-20 1.47678 	-1.64238 	4.53421e-20 1.48272 	-1.62527 	6.85734e-20 1.48271 	-1.62121 	6.74579e-20 1.48279 	-1.61722 	6.76212e-20 1.48338 	-1.61361 	7.51599e-20 1.48398 	-1.61001 	8.26966e-20 1.4846 	-1.60638 	9.03211e-20 1.48731 	-1.59063 	1.39729e-19 1.49028 	-1.57507 	1.89014e-19 1.49353 	-1.55973 	2.38174e-19 1.49871 	-1.54622 	1.68538e-19 1.50412 	-1.53403 	8.22097e-20 1.50578 	-1.51455 	1.5553e-19 1.50828 	-1.4958 	2.03608e-19 1.5129 	-1.47898 	1.61777e-19 1.51786 	-1.46243 	1.20477e-19 1.52356 	-1.44495 	7.67147e-20 1.52359 	-1.44487 	7.64399e-20 1.52362 	-1.4448 	7.61652e-20 1.52364 	-1.44472 	7.58905e-20 1.52368 	-1.44465 	7.62557e-20 1.52371 	-1.44459 	7.69012e-20 1.52811 	-1.42756 	1.267e-19 1.53292 	-1.41081 	1.74745e-19 1.5381 	-1.39432 	2.22398e-19 1.54487 	-1.37961 	1.84272e-19 1.55197 	-1.36668 	1.17144e-19 1.5553 	-1.34908 	2.03172e-19 1.55952 	-1.33236 	2.39437e-19 1.56516 	-1.31722 	1.74693e-19 1.57114 	-1.30232 	1.10163e-19 1.57749 	-1.28877 	3.78433e-20 1.57772 	-1.28779 	3.75935e-20 1.57799 	-1.28685 	3.677e-20 1.57831 	-1.28597 	3.52228e-20 1.57862 	-1.2851 	3.36752e-20 1.57895 	-1.28422 	3.21187e-20 1.58417 	-1.27026 	-1.34201e-20 1.58969 	-1.2565 	-5.88797e-20 1.59551 	-1.24294 	-1.04257e-19 1.60222 	-1.23059 	-8.935e-20 1.60928 	-1.21985 	-3.00153e-20 1.61373 	-1.20434 	-7.54009e-20 1.61849 	-1.18902 	-1.212e-19 1.62457 	-1.17565 	-1.0369e-19 1.63187 	-1.16299 	-6.09354e-20 1.6399 	-1.15161 	3.29842e-22 1.64218 	-1.14479 	2.87535e-20 1.64479 	-1.13847 	2.82424e-20 1.64765 	-1.13252 	7.11194e-21 1.65057 	-1.12661 	-1.39679e-20 1.6537 	-1.12044 	-3.60458e-20 1.65735 	-1.1136 	-6.80176e-20 1.66108 	-1.10682 	-9.98773e-20 1.6649 	-1.10009 	-1.31624e-19 1.66895 	-1.09379 	-1.31179e-19 1.6732 	-1.08831 	-7.98823e-20 1.67835 	-1.07456 	-1.11919e-19 1.68437 	-1.06131 	-1.36174e-19 1.69171 	-1.0489 	-1.45583e-19 1.69989 	-1.03829 	-1.35254e-19 1.70798 	-1.02832 	-1.25265e-19 1.71376 	-1.01482 	-2.75568e-19 1.72003 	-1.00212 	-3.50104e-19 1.72691 	-0.990681 	-2.96033e-19 1.73406 	-0.979401 	-2.4247e-19 1.74236 	-0.969322 	-1.16085e-19 1.74445 	-0.964995 	-8.26394e-20 1.7467 	-0.961118 	-8.48509e-20 1.749 	-0.957375 	-9.66883e-20 1.75133 	-0.953648 	-1.08478e-19 1.7538 	-0.949779 	-1.20724e-19 1.75867 	-0.942412 	-1.24339e-19 1.76366 	-0.935111 	-1.27926e-19 1.76876 	-0.927878 	-1.31485e-19 1.77401 	-0.920934 	-1.29672e-19 1.77936 	-0.91516 	-1.05248e-19 1.78541 	-0.903228 	-1.32858e-19 1.79246 	-0.89187 	-1.44822e-19 1.8004 	-0.881016 	-1.43594e-19 1.80872 	-0.871951 	-1.02958e-19 1.817 	-0.86342 	-6.09324e-20 1.82362 	-0.851728 	-1.64893e-19 1.83049 	-0.840204 	-2.66803e-19 1.83766 	-0.830512 	-2.2549e-19 1.84587 	-0.821404 	-1.27945e-19 1.85455 	-0.812959 	4.42663e-23 1.86116 	-0.802415 	1.42428e-22 1.86793 	-0.793502 	1.07852e-22 1.87489 	-0.784731 	6.92659e-23 1.88205 	-0.776061 	3.02517e-23 1.89041 	-0.766304 	-1.4651e-23 1.8908 	-0.765877 	7.28515e-22 1.89119 	-0.76545 	1.47118e-21 1.89158 	-0.765024 	2.21335e-21 1.89197 	-0.764597 	2.95501e-21 1.89235 	-0.764255 	4.33878e-22 1.89983 	-0.754799 	-2.53581e-20 1.90762 	-0.745516 	-4.72268e-20 1.91563 	-0.736344 	-6.89172e-20 1.92387 	-0.727295 	-8.9875e-20 1.93178 	-0.720308 	-3.11903e-20 1.93866 	-0.710351 	-2.11198e-20 1.94623 	-0.700834 	-1.39096e-20 1.95462 	-0.69185 	-1.03966e-20 1.96278 	-0.68458 	-1.59763e-20 1.97093 	-0.677712 	-2.24416e-20 1.97824 	-0.668005 	5.39504e-20 1.98578 	-0.6584 	1.30455e-19 1.9932 	-0.650313 	1.3236e-19 2.00152 	-0.643367 	6.57228e-20 2.00986 	-0.636624 	1.63088e-22 2.01757 	-0.627172 	9.69353e-23 2.0251 	-0.618797 	-1.11985e-20 2.03252 	-0.611256 	-3.10441e-20 2.04013 	-0.603794 	-5.0866e-20 2.04859 	-0.597154 	-6.39054e-20 2.05549 	-0.589459 	-1.0642e-19 2.06201 	-0.582958 	-1.09971e-19 2.06867 	-0.576513 	-1.13582e-19 2.07546 	-0.570126 	-1.17252e-19 2.08342 	-0.562855 	-1.21534e-19 2.08419 	-0.562181 	-1.22734e-19 2.08496 	-0.561507 	-1.23933e-19 2.08574 	-0.560834 	-1.25132e-19 2.08651 	-0.560162 	-1.2633e-19 2.08722 	-0.559616 	-1.22267e-19 2.09468 	-0.552315 	-9.43069e-20 2.10238 	-0.545157 	-6.50636e-20 2.11025 	-0.538069 	-3.58583e-20 2.11829 	-0.531049 	-6.69098e-21 2.12555 	-0.52556 	1.79211e-22 2.13271 	-0.517795 	6.74865e-20 2.14053 	-0.510812 	8.64447e-20 2.14855 	-0.50392 	1.03582e-19 2.1562 	-0.497845 	8.4321e-20 2.16322 	-0.492926 	1.48932e-20 2.1706 	-0.485404 	-5.50469e-20 2.17821 	-0.478029 	-1.18792e-19 2.18628 	-0.47139 	-1.35001e-19 2.1932 	-0.466525 	-6.72701e-20 2.20018 	-0.461744 	-7.24443e-23 2.20776 	-0.454464 	-3.95439e-23 2.21552 	-0.447243 	-6.81566e-24 2.22264 	-0.441379 	0 2.22948 	-0.436662 	0 2.23639 	-0.432019 	0 2.24414 	-0.424981 	0 2.25181 	-0.418263 	0 2.25831 	-0.413028 	0 2.26501 	-0.408252 	-1.01399e-20 2.27181 	-0.403747 	-2.5162e-20 2.2797 	-0.396948 	-6.22643e-21 2.28661 	-0.391312 	-6.35666e-21 2.29311 	-0.386262 	-1.58226e-20 2.29973 	-0.381276 	-2.67288e-20 2.3064 	-0.376908 	-6.64708e-20 2.31411 	-0.370596 	-2.8484e-20 2.32046 	-0.365695 	-3.02733e-20 2.32693 	-0.360827 	-3.20344e-20 2.33352 	-0.355993 	-3.37674e-20 2.34011 	-0.351475 	-4.64665e-20 2.34635 	-0.346618 	-3.69196e-20 2.35195 	-0.342406 	-3.83689e-20 2.35765 	-0.338219 	-3.97967e-20 2.36344 	-0.334056 	-4.12033e-20 2.37028 	-0.329241 	-4.2815e-20 2.37081 	-0.328881 	-4.26954e-20 2.37134 	-0.328522 	-4.25759e-20 2.37187 	-0.328162 	-4.24566e-20 2.3724 	-0.327803 	-4.23375e-20 2.37286 	-0.327499 	-4.2517e-20 2.37902 	-0.322908 	-4.92319e-20 2.38529 	-0.318373 	-5.37807e-20 2.39166 	-0.313865 	-5.82524e-20 2.39814 	-0.309384 	-6.26477e-20 2.40378 	-0.305657 	-3.89634e-20 2.41011 	-0.300942 	-7.51792e-20 2.41627 	-0.296582 	-8.7312e-20 2.42254 	-0.292247 	-9.93861e-20 2.42891 	-0.287938 	-1.11402e-19 2.43355 	-0.284951 	-7.13005e-20 2.44013 	-0.280167 	-1.18596e-19 2.44617 	-0.27598 	-1.21123e-19 2.45231 	-0.271816 	-1.23602e-19 2.4582 	-0.267912 	-1.18998e-19 2.46217 	-0.265348 	-7.53437e-20 2.46878 	-0.260732 	-1.17872e-19 2.47495 	-0.256527 	-1.28026e-19 2.48095 	-0.252531 	-1.22421e-19 2.48588 	-0.24927 	-9.48009e-20 2.48962 	-0.246812 	-4.31994e-20 2.49621 	-0.242399 	4.31579e-20 2.5026 	-0.238178 	1.03878e-19 2.50844 	-0.234349 	1.09374e-19 2.51241 	-0.231661 	5.0371e-20 2.5159 	-0.229306 	-2.66948e-20 2.52244 	-0.225092 	-1.75914e-20 2.52909 	-0.220897 	-8.49792e-21 2.5346 	-0.217313 	8.66914e-21 2.53778 	-0.215045 	2.59575e-20 2.54102 	-0.212791 	4.32206e-20 2.54749 	-0.208773 	-4.33236e-20 2.55408 	-0.204771 	-1.29881e-19 2.55906 	-0.20155 	-1.41242e-19 2.56198 	-0.199383 	-7.10802e-20 2.56495 	-0.197227 	-1.01744e-21 2.57136 	-0.1934 	-1.03943e-22 2.57786 	-0.189588 	7.88759e-22 2.58237 	-0.186703 	-1.56676e-20 2.58502 	-0.184634 	-4.94143e-20 2.58773 	-0.182575 	-8.3136e-20 2.59405 	-0.178935 	-4.76804e-20 2.60046 	-0.175308 	-1.22406e-20 2.60453 	-0.172732 	-8.54664e-21 2.60692 	-0.17076 	-2.59302e-20 2.60935 	-0.168796 	-4.32981e-20 2.61557 	-0.165338 	-2.59875e-20 2.62187 	-0.161895 	-8.71219e-21 2.62548 	-0.159617 	-9.45655e-21 2.62767 	-0.157721 	-2.60536e-20 2.62984 	-0.15585 	-4.3379e-20 2.63595 	-0.15257 	-1.64886e-19 2.6416 	-0.149515 	-2.6178e-19 2.64504 	-0.147356 	-2.5709e-19 2.64731 	-0.145478 	-1.64748e-19 2.64921 	-0.143697 	-4.33595e-20 2.6552 	-0.14059 	-2.59815e-20 2.66021 	-0.137883 	-8.6211e-21 2.66349 	-0.13584 	8.70888e-21 2.66584 	-0.133993 	2.13086e-20 2.66748 	-0.132301 	3.02505e-20 2.67334 	-0.129363 	9.13189e-20 2.67774 	-0.126965 	1.18689e-19 2.68085 	-0.125033 	1.17015e-19 2.68329 	-0.123231 	9.21107e-20 2.68467 	-0.121624 	3.16744e-20 2.69041 	-0.11885 	2.32324e-20 2.69421 	-0.116728 	1.48066e-20 2.69716 	-0.114904 	6.38591e-21 2.69969 	-0.113155 	0 2.70081 	-0.111632 	0 2.70642 	-0.109016 	0 2.70966 	-0.107138 	1.47198e-20 2.71244 	-0.105419 	3.25502e-20 2.71507 	-0.103731 	5.03654e-20 2.71594 	-0.10229 	6.81073e-20 2.72141 	-0.0998278 	1.90104e-19 2.72413 	-0.0981654 	1.93619e-19 2.72674 	-0.0965473 	1.91092e-19 2.7294 	-0.0949324 	1.88615e-19 2.73008 	-0.0935652 	7.02139e-20 2.73521 	-0.0913026 	5.31997e-20 2.73763 	-0.0897791 	3.62387e-20 2.74008 	-0.0882584 	1.92695e-20 2.74258 	-0.0867405 	2.29217e-21 2.74326 	-0.0854248 	1.46994e-20 2.74795 	-0.0833788 	-4.34207e-24 2.75021 	-0.0819496 	-2.9888e-23 2.7525 	-0.0805228 	-5.54238e-23 2.75484 	-0.0790984 	-8.09494e-23 2.75552 	-0.0778383 	6.38969e-21 2.75979 	-0.0759874 	-5.08111e-20 2.76189 	-0.0746488 	-4.95121e-20 2.76404 	-0.0733124 	-4.82405e-20 2.76622 	-0.071978 	-4.69963e-20 2.7669 	-0.0707765 	-5.64434e-21 2.77077 	-0.0691011 	8.55952e-23 2.77273 	-0.0678496 	6.0489e-23 2.77472 	-0.0665999 	3.53729e-23 2.77675 	-0.0653519 	1.02472e-23 2.77743 	-0.0642112 	0 2.78094 	-0.0626937 	1.11891e-20 2.78275 	-0.0615257 	3.75125e-20 2.7846 	-0.0603592 	6.38272e-20 2.78648 	-0.0591942 	9.01331e-20 2.78715 	-0.0581154 	1.07495e-19 2.79032 	-0.0567402 	1.73104e-19 2.79199 	-0.055652 	1.72025e-19 2.7937 	-0.0545652 	1.70975e-19 2.79544 	-0.0534796 	1.69952e-19 2.7961 	-0.0524632 	1.02483e-19 2.79895 	-0.0512162 	8.75803e-20 2.8005 	-0.0502045 	5.31467e-20 2.80207 	-0.0491938 	1.87077e-20 2.80367 	-0.0481842 	-1.57368e-20 2.80431 	-0.04723 	-4.66907e-20 2.80688 	-0.0460987 	-9.02164e-20 2.8083 	-0.0451598 	-8.90084e-20 2.80974 	-0.0442218 	-8.78343e-20 2.81121 	-0.0432848 	-8.6694e-20 2.81182 	-0.042392 	-3.70495e-20 2.81414 	-0.0413652 	-4.95387e-20 2.81543 	-0.0404958 	-3.1718e-20 2.81676 	-0.0396271 	-1.39151e-20 2.8181 	-0.0387591 	3.86988e-21 2.81868 	-0.0379266 	4.3104e-20 2.82076 	-0.0369945 	4.9861e-20 2.82194 	-0.036191 	6.73321e-20 2.82315 	-0.0353882 	8.47949e-20 2.82438 	-0.034586 	1.02249e-19 2.82491 	-0.0338123 	1.22065e-19 2.82678 	-0.0329659 	1.46232e-19 2.82786 	-0.0322251 	1.3701e-19 2.82895 	-0.0314848 	1.27808e-19 2.83007 	-0.0307451 	1.18628e-19 2.83056 	-0.0300283 	8.16881e-20 2.83224 	-0.0292597 	5.80646e-20 2.83321 	-0.0285783 	3.23164e-20 2.8342 	-0.0278974 	6.56632e-21 2.83521 	-0.0272168 	-1.91856e-20 2.83565 	-0.0265549 	-4.10462e-20 2.83717 	-0.0258572 	-5.61692e-20 2.83805 	-0.0252319 	-3.83951e-20 2.83894 	-0.024607 	-2.0647e-20 2.83985 	-0.0239825 	-2.92505e-21 2.84023 	-0.0233732 	4.84837e-20 2.84161 	-0.02274 	1.02327e-19 2.84239 	-0.0221678 	1.10007e-19 2.84319 	-0.0215958 	1.17731e-19 2.84401 	-0.0210241 	1.25498e-19 2.84433 	-0.0204651 	8.86223e-20 2.84558 	-0.019891 	7.17984e-20 2.84628 	-0.0193686 	6.32547e-20 2.847 	-0.0188465 	5.47069e-20 2.84773 	-0.0183246 	4.6155e-20 2.84798 	-0.0178134 	3.76057e-20 2.84913 	-0.0172933 	1.44055e-20 2.84975 	-0.0168178 	1.47533e-20 2.85038 	-0.0163426 	1.50785e-20 2.85104 	-0.0158676 	1.53812e-20 2.85122 	-0.0154016 	4.14744e-20 2.85227 	-0.014931 	3.98575e-20 2.85282 	-0.0