# vtk DataFile Version 2.0
track0
ASCII
DATASET POLYDATA
POINTS 12278 float
-0.0205 0.001 1e-05
-0.02052 0.000999216 1e-05
-0.02054 0.000998592 1e-05
-0.02056 0.000998126 1e-05
-0.02058 0.000997818 1e-05
-0.0206 0.000997665 1e-05
-0.0205 0.00367778 1e-05
-0.02052 0.00367703 1e-05
-0.02054 0.00367643 1e-05
-0.02056 0.00367599 1e-05
-0.02058 0.00367569 1e-05
-0.0206 0.00367554 1e-05
-0.0205 0.00635556 1e-05
-0.02052 0.00635527 1e-05
-0.02054 0.00635505 1e-05
-0.02056 0.00635488 1e-05
-0.02058 0.00635476 1e-05
-0.0206 0.00635471 1e-05
-0.0205 0.00903333 1e-05
-0.02052 0.00903311 1e-05
-0.02054 0.00903293 1e-05
-0.02056 0.0090328 1e-05
-0.02058 0.00903271 1e-05
-0.0206 0.00903266 1e-05
-0.0205 0.0117111 1e-05
-0.02052 0.0117111 1e-05
-0.02054 0.011711 1e-05
-0.02056 0.011711 1e-05
-0.02058 0.011711 1e-05
-0.0206 0.011711 1e-05
-0.0205 0.0143889 1e-05
-0.02052 0.014389 1e-05
-0.02054 0.014389 1e-05
-0.02056 0.0143891 1e-05
-0.02058 0.0143891 1e-05
-0.0206 0.0143891 1e-05
-0.0205 0.0170667 1e-05
-0.02052 0.017067 1e-05
-0.02054 0.0170672 1e-05
-0.02056 0.0170674 1e-05
-0.02058 0.0170675 1e-05
-0.0206 0.0170676 1e-05
-0.0205 0.0197444 1e-05
-0.02052 0.019745 1e-05
-0.02054 0.0197454 1e-05
-0.02056 0.0197457 1e-05
-0.02058 0.0197459 1e-05
-0.0206 0.019746 1e-05
-0.0205 0.0224222 1e-05
-0.02052 0.022423 1e-05
-0.02054 0.0224236 1e-05
-0.02056 0.0224241 1e-05
-0.02058 0.0224244 1e-05
-0.0206 0.0224245 1e-05
-0.0205 0.0251 1e-05
-0.02052 0.0251003 1e-05
-0.02054 0.0251005 1e-05
-0.02056 0.0251007 1e-05
-0.02058 0.0251008 1e-05
-0.0206 0.0251008 1e-05
-0.0205 0.001 1e-05
-0.0203632 0.00100536 1e-05
-0.0202266 0.00101331 1e-05
-0.0200901 0.00102296 1e-05
-0.0200427 0.00102682 1e-05
-0.0198376 0.00104418 1e-05
-0.0196338 0.00107322 1e-05
-0.0194327 0.00111734 1e-05
-0.0192368 0.00118024 1e-05
-0.0190172 0.00124951 1e-05
-0.0189002 0.00128348 1e-05
-0.0187827 0.00131598 1e-05
-0.0186649 0.001347 1e-05
-0.0185469 0.001377 1e-05
-0.0183807 0.00141936 1e-05
-0.0182041 0.00146458 1e-05
-0.0180267 0.00150692 1e-05
-0.0178487 0.0015464 1e-05
-0.0176703 0.00158389 1e-05
-0.0174976 0.00161991 1e-05
-0.0172846 0.00166394 1e-05
-0.0170715 0.00170741 1e-05
-0.0168583 0.00175029 1e-05
-0.0166449 0.00179219 1e-05
-0.0163945 0.00184007 1e-05
-0.0163234 0.00185324 1e-05
-0.0162522 0.00186629 1e-05
-0.016181 0.00187921 1e-05
-0.0161097 0.00189201 1e-05
-0.0160387 0.0019046 1e-05
-0.0157586 0.0019535 1e-05
-0.0154779 0.00199931 1e-05
-0.0151968 0.00204225 1e-05
-0.0149154 0.00208283 1e-05
-0.0146381 0.00212134 1e-05
-0.0143838 0.00215527 1e-05
-0.0141293 0.00218766 1e-05
-0.0138747 0.00221855 1e-05
-0.0136198 0.00224797 1e-05
-0.0132934 0.00228369 1e-05
-0.0132791 0.00228515 1e-05
-0.0132648 0.0022866 1e-05
-0.0132504 0.00228805 1e-05
-0.0132361 0.0022895 1e-05
-0.0132214 0.00229098 1e-05
-0.0129776 0.00231543 1e-05
-0.0127337 0.00233865 1e-05
-0.0124897 0.00236061 1e-05
-0.0122456 0.0023813 1e-05
-0.0120025 0.00240058 1e-05
-0.0117547 0.00241909 1e-05
-0.0115067 0.00243627 1e-05
-0.0112587 0.00245231 1e-05
-0.0110106 0.00246734 1e-05
-0.0107632 0.00248136 1e-05
-0.0105252 0.00249391 1e-05
-0.0102872 0.00250547 1e-05
-0.0100491 0.00251602 1e-05
-0.00981105 0.00252575 1e-05
-0.00957337 0.00253471 1e-05
-0.00934491 0.00254261 1e-05
-0.00911643 0.00254974 1e-05
-0.00888792 0.0025561 1e-05
-0.0086594 0.00256171 1e-05
-0.00843108 0.00256668 1e-05
-0.00821175 0.00257084 1e-05
-0.00799241 0.00257439 1e-05
-0.00777306 0.00257731 1e-05
-0.0075537 0.00257952 1e-05
-0.00733443 0.00258114 1e-05
-0.00712387 0.00258212 1e-05
-0.0069133 0.00258255 1e-05
-0.00670273 0.00258243 1e-05
-0.00649216 0.00258162 1e-05
-0.0062816 0.00258017 1e-05
-0.00607944 0.00257819 1e-05
-0.0058773 0.00257565 1e-05
-0.00567516 0.00257256 1e-05
-0.00547303 0.00256874 1e-05
-0.00527083 0.00256419 1e-05
-0.00507675 0.00255912 1e-05
-0.00488269 0.00255342 1e-05
-0.00468865 0.0025471 1e-05
-0.00449464 0.00253997 1e-05
-0.00430044 0.0025319 1e-05
-0.00411412 0.00252328 1e-05
-0.00392784 0.00251387 1e-05
-0.00374159 0.00250368 1e-05
-0.0035554 0.00249254 1e-05
-0.00336883 0.00248015 1e-05
-0.00318995 0.00246711 1e-05
-0.00301115 0.00245299 1e-05
-0.00283245 0.00243774 1e-05
-0.00265386 0.0024212 1e-05
-0.00247443 0.00240313 1e-05
-0.0023027 0.00238424 1e-05
-0.00213114 0.00236383 1e-05
-0.00195982 0.00234153 1e-05
-0.00178875 0.00231737 1e-05
-0.00161577 0.00229104 1e-05
-0.0016157 0.00229103 1e-05
-0.00161562 0.00229102 1e-05
-0.00161554 0.002291 1e-05
-0.00161546 0.00229099 1e-05
-0.00161539 0.00229098 1e-05
-0.00145059 0.00226407 1e-05
-0.0012862 0.00223481 1e-05
-0.00112223 0.00220325 1e-05
-0.000958715 0.00216945 1e-05
-0.000791418 0.00213235 1e-05
-0.000633135 0.00209423 1e-05
-0.000475556 0.0020533 1e-05
-0.000318719 0.00200962 1e-05
-0.000162835 0.00196265 1e-05
0 0.00190949 1e-05
3.73253e-05 0.0018963 1e-05
7.45507e-05 0.00188282 1e-05
0.000111678 0.00186908 1e-05
0.000148707 0.00185507 1e-05
0.000179007 0.00184337 1e-05
0.000248883 0.00181593 1e-05
0.000318348 0.00178746 1e-05
0.000387388 0.00175798 1e-05
0.000455987 0.00172748 1e-05
0.000528387 0.0016941 1e-05
0.000634886 0.00164312 1e-05
0.000740278 0.00158988 1e-05
0.00084451 0.00153442 1e-05
0.00094762 0.00147689 1e-05
0.00101981 0.00143468 1e-05
0.00102802 0.00142972 1e-05
0.00103623 0.00142474 1e-05
0.00104442 0.00141974 1e-05
0.00105261 0.00141473 1e-05
0.00106088 0.00140965 1e-05
0.00116821 0.00134346 1e-05
0.00127404 0.0012749 1e-05
0.00137827 0.00120394 1e-05
0.00148099 0.00113081 1e-05
0.0015966 0.00104511 1e-05
0.00159679 0.00104497 1e-05
0.00159697 0.00104482 1e-05
0.00159715 0.00104468 1e-05
0.00159734 0.00104454 1e-05
0.00159752 0.0010444 1e-05
0.00169216 0.000970841 1e-05
0.0017854 0.000895521 1e-05
0.00187716 0.000818402 1e-05
0.00196751 0.000739631 1e-05
0.00203789 0.000676366 1e-05
0.00205798 0.000657856 1e-05
0.00207798 0.000639255 1e-05
0.0020979 0.000620566 1e-05
0.00211776 0.000601813 1e-05
0.00213833 0.000582275 1e-05
0.00219144 0.000531478 1e-05
0.00224405 0.000480166 1e-05
0.00229614 0.000428329 1e-05
0.0023477 0.000375962 1e-05
0.00239398 0.000328254 1e-05
0.00245185 0.000267767 1e-05
0.00250909 0.000206679 1e-05
0.0025657 0.000145008 1e-05
0.00262179 8.28698e-05 1e-05
0.00268334 1.35121e-05 1e-05
0.00268569 1.08097e-05 1e-05
0.00268804 8.10629e-06 1e-05
0.00269039 5.40188e-06 1e-05
0.00269274 2.69647e-06 1e-05
0.00269507 0 1e-05
0.00275897 -7.37367e-05 1e-05
0.00282225 -0.000148005 1e-05
0.00288489 -0.000222813 1e-05
0.00294686 -0.000298172 1e-05
0.00300393 -0.000368654 1e-05
0.00304966 -0.000425967 1e-05
0.00309508 -0.000483526 1e-05
0.0031402 -0.000541328 1e-05
0.00318506 -0.000599324 1e-05
0.00323259 -0.000661339 1e-05
0.00325061 -0.00068509 1e-05
0.00326858 -0.00070888 1e-05
0.00328649 -0.000732711 1e-05
0.00330435 -0.000756581 1e-05
0.00332187 -0.000780089 1e-05
0.00339001 -0.000871876 1e-05
0.00345755 -0.000964106 1e-05
0.00352447 -0.00105679 1e-05
0.00359085 -0.00114986 1e-05
0.00365371 -0.00123896 1e-05
0.00368019 -0.00127689 1e-05
0.00370659 -0.00131487 1e-05
0.00373292 -0.0013529 1e-05
0.0037592 -0.00139097 1e-05
0.00378611 -0.00143008 1e-05
0.00383006 -0.00149416 1e-05
0.0038738 -0.00155838 1e-05
0.00391733 -0.00162275 1e-05
0.00396062 -0.00168728 1e-05
0.00400275 -0.00175043 1e-05
0.00407099 -0.00185331 1e-05
0.00413881 -0.00195645 1e-05
0.0042062 -0.00205988 1e-05
0.0042733 -0.00216349 1e-05
0.00434393 -0.00227321 1e-05
0.00434995 -0.00228263 1e-05
0.00435597 -0.00229205 1e-05
0.00436198 -0.00230147 1e-05
0.00436799 -0.0023109 1e-05
0.00437398 -0.0023203 1e-05
0.00445483 -0.00244725 1e-05
0.00453523 -0.00257448 1e-05
0.00461523 -0.00270197 1e-05
0.00469488 -0.00282967 1e-05
0.00477275 -0.00295497 1e-05
0.00479942 -0.00299803 1e-05
0.00482606 -0.0030411 1e-05
0.00485268 -0.00308419 1e-05
0.00487929 -0.00312729 1e-05
0.00490609 -0.0031707 1e-05
0.0049667 -0.00326889 1e-05
0.00502717 -0.00336717 1e-05
0.00508749 -0.00346553 1e-05
0.00514767 -0.00356399 1e-05
0.0052073 -0.00366161 1e-05
0.00526036 -0.00374854 1e-05
0.00531339 -0.0038355 1e-05
0.00536637 -0.00392249 1e-05
0.00541938 -0.00400946 1e-05
0.00547262 -0.00409669 1e-05
0.00551558 -0.00416697 1e-05
0.00555851 -0.00423728 1e-05
0.0056014 -0.00430761 1e-05
0.00564428 -0.00437794 1e-05
0.00568708 -0.00444811 1e-05
0.00575838 -0.00456487 1e-05
0.00582972 -0.00468161 1e-05
0.00590111 -0.00479831 1e-05
0.00597263 -0.00491493 1e-05
0.00604356 -0.00503011 1e-05
0.0060798 -0.00508874 1e-05
0.00611606 -0.00514736 1e-05
0.00615232 -0.00520598 1e-05
0.00618861 -0.00526459 1e-05
0.006225 -0.00532326 1e-05
0.00630379 -0.00545003 1e-05
0.00638276 -0.00557668 1e-05
0.00646194 -0.00570321 1e-05
0.00654138 -0.00582957 1e-05
0.00661893 -0.00595211 1e-05
0.00666283 -0.00602103 1e-05
0.00670678 -0.00608991 1e-05
0.00675079 -0.00615876 1e-05
0.00679488 -0.00622756 1e-05
0.00683935 -0.00629671 1e-05
0.00691124 -0.00640811 1e-05
0.00698338 -0.00651935 1e-05
0.00705577 -0.00663041 1e-05
0.00712846 -0.00674129 1e-05
0.00719878 -0.00684775 1e-05
0.00726948 -0.006954 1e-05
0.0073404 -0.00706012 1e-05
0.00741154 -0.00716608 1e-05
0.007483 -0.00727183 1e-05
0.00755599 -0.00737909 1e-05
0.00760142 -0.00744538 1e-05
0.00764697 -0.00751157 1e-05
0.00769266 -0.00757768 1e-05
0.00773847 -0.0076437 1e-05
0.00778313 -0.00770772 1e-05
0.00790091 -0.00787567 1e-05
0.00801946 -0.00804309 1e-05
0.00813878 -0.00820996 1e-05
0.0082591 -0.00837611 1e-05
0.00837203 -0.00853001 1e-05
0.00837975 -0.00854038 1e-05
0.00838747 -0.00855076 1e-05
0.0083952 -0.00856113 1e-05
0.00840293 -0.0085715 1e-05
0.00841068 -0.00858189 1e-05
0.00852165 -0.00873051 1e-05
0.00863344 -0.0088785 1e-05
0.00874606 -0.00902585 1e-05
0.00885956 -0.00917254 1e-05
0.00896551 -0.00930762 1e-05
0.00903015 -0.00938896 1e-05
0.00909504 -0.00947009 1e-05
0.00916021 -0.00955101 1e-05
0.00922568 -0.00963168 1e-05
0.00929332 -0.00971439 1e-05
0.00934737 -0.00977996 1e-05
0.00940163 -0.00984537 1e-05
0.00945607 -0.00991061 1e-05
0.00951072 -0.00997569 1e-05
0.0095636 -0.0100383 1e-05
0.00968415 -0.01018 1e-05
[...]
POINT_DATA 12278
 FIELD attributes 1
U 3 12278 float
9.72339 	0.381311 	0 9.77871 	0.305049 	0 9.83405 	0.228765 	0 9.8894 	0.152465 	0 9.94476 	0.0761532 	0 10 	0 	0
10.0671 	0.375483 	0 10.0537 	0.300387 	0 10.0403 	0.225271 	0 10.0268 	0.150141 	0 10.0134 	0.0750009 	0 10 	0 	0
10.0364 	0.141572 	0 10.0291 	0.113304 	0 10.0218 	0.085089 	0 10.0145 	0.0569263 	0 10.0071 	0.0288164 	0 10 	0 	0
10.0137 	0.111519 	0 10.011 	0.0892151 	0 10.0082 	0.0669109 	0 10.0055 	0.0446062 	0 10.0027 	0.0223012 	0 10 	0 	0
10.0097 	0.0196535 	0 10.0078 	0.0157228 	0 10.0058 	0.0117921 	0 10.0039 	0.00786137 	0 10.0019 	0.00393068 	0 10 	0 	0
10.0102 	-0.0372874 	0 10.0082 	-0.02983 	0 10.0061 	-0.0223724 	0 10.0041 	-0.0149149 	0 10.002 	-0.00745739 	0 10 	0 	0
10.0174 	-0.148996 	0 10.0139 	-0.119197 	0 10.0105 	-0.0893967 	0 10.007 	-0.0595953 	0 10.0035 	-0.0297932 	0 10 	0 	0
10.0362 	-0.265901 	0 10.029 	-0.212721 	0 10.0217 	-0.159534 	0 10.0145 	-0.106342 	0 10.0072 	-0.053146 	0 10 	0 	0
10.0563 	-0.387167 	0 10.045 	-0.309734 	0 10.0338 	-0.23228 	0 10.0225 	-0.15481 	0 10.0112 	-0.0773281 	0 10 	0 	0
8.30133 	-0.114495 	0 8.4287 	-0.091596 	0 8.55659 	-0.0686962 	0 8.68498 	-0.0457957 	0 8.81385 	-0.0228949 	0 8.94315 	0 	0
9.72339 	0.381311 	0 9.5415 	0.555241 	0 9.39671 	0.663651 	0 9.26203 	0.754272 	0 9.2183 	0.780385 	0 8.95344 	1.27614 	0 8.70578 	1.91036 	0 8.48173 	2.72184 	0 8.46724 	2.67123 	0 8.47252 	2.45986 	0 8.50117 	2.35314 	0 8.52498 	2.2443 	0 8.51221 	2.16311 	0 8.42487 	2.14738 	0 8.30214 	2.12559 	0 8.30117 	1.9821 	0 8.28715 	1.83798 	0 8.21181 	1.72569 	0 8.035 	1.67507 	0 7.86306 	1.62575 	0 7.68323 	1.56759 	0 7.50177 	1.50875 	0 7.42793 	1.45839 	0 7.36148 	1.40771 	0 7.27865 	1.34671 	0 7.22249 	1.32376 	0 7.16614 	1.3007 	0 7.10958 	1.27753 	0 7.07928 	1.2544 	0 7.05291 	1.23121 	0 6.97394 	1.13838 	0 6.88841 	1.05226 	0 6.79883 	0.980329 	0 6.71191 	0.932083 	0 6.6228 	0.883658 	0 6.55089 	0.833775 	0 6.49228 	0.787587 	0 6.44246 	0.743855 	0 6.3887 	0.69909 	0 6.31694 	0.642265 	0 6.31477 	0.64017 	0 6.3132 	0.638346 	0 6.31172 	0.636559 	0 6.31023 	0.634771 	0 6.30868 	0.632932 	0 6.27132 	0.597061 	0 6.23151 	0.560863 	0 6.18922 	0.524331 	0 6.1444 	0.487462 	0 6.10943 	0.456251 	0 6.07602 	0.420969 	0 6.04571 	0.390994 	0 6.01701 	0.364549 	0 5.99443 	0.339599 	0 5.97316 	0.315194 	0 5.95246 	0.28906 	0 5.92972 	0.262717 	0 5.91348 	0.241655 	0 5.9034 	0.222651 	0 5.89182 	0.203583 	0 5.87917 	0.183516 	0 5.86498 	0.163349 	0 5.85627 	0.143785 	0 5.85337 	0.127395 	0 5.8492 	0.110979 	0 5.84297 	0.0943443 	0 5.8355 	0.0776676 	0 5.83342 	0.0589648 	0 5.83631 	0.0430902 	0 5.83801 	0.0272162 	0 5.83718 	0.011918 	0 5.83536 	-0.00344909 	0 5.83922 	-0.0225512 	0 5.84733 	-0.0400435 	0 5.85426 	-0.0574817 	0 5.85862 	-0.0735493 	0 5.86186 	-0.0895909 	0 5.87123 	-0.11098 	0 5.88469 	-0.132519 	0 5.89666 	-0.153986 	0 5.90652 	-0.173354 	0 5.91509 	-0.192651 	0 5.92941 	-0.218111 	0 5.9483 	-0.247069 	0 5.96529 	-0.275886 	0 5.98123 	-0.30212 	0 5.99553 	-0.328204 	0 6.01457 	-0.359819 	0 6.03867 	-0.400985 	0 6.06028 	-0.441907 	0 6.08262 	-0.480373 	0 6.10482 	-0.520997 	0 6.13013 	-0.567656 	0 6.15461 	-0.619729 	0 6.17874 	-0.679542 	0 6.20613 	-0.738541 	0 6.23747 	-0.811936 	0 6.26495 	-0.884794 	0 6.2886 	-0.957115 	0 6.30871 	-1.02982 	0 6.30873 	-1.02987 	0 6.30874 	-1.02992 	0 6.30875 	-1.02997 	0 6.30877 	-1.03002 	0 6.30878 	-1.03007 	0 6.33258 	-1.12727 	0 6.35112 	-1.22236 	0 6.36454 	-1.31538 	0 6.3753 	-1.41408 	0 6.38859 	-1.5383 	0 6.40639 	-1.66405 	0 6.41795 	-1.7877 	0 6.40582 	-1.93023 	2.6212e-20 6.36946 	-2.07919 	5.37353e-20 6.31931 	-2.23398 	8.12378e-20 6.3111 	-2.28441 	2.34101e-20 6.29893 	-2.33173 	5.86584e-21 6.28257 	-2.37574 	3.1286e-20 6.26566 	-2.41949 	5.7326e-20 6.25132 	-2.45517 	7.91976e-20 6.22493 	-2.55105 	1.78979e-19 6.19658 	-2.64636 	2.82923e-19 6.1663 	-2.74109 	3.91004e-19 6.12014 	-2.82225 	2.74361e-19 6.06358 	-2.90261 	6.24945e-20 5.98362 	-3.02228 	4.92785e-20 5.89845 	-3.13897 	3.61911e-20 5.80158 	-3.23682 	8.57601e-21 5.70031 	-3.33273 	-1.80394e-20 5.62546 	-3.39923 	-3.61623e-20 5.6163 	-3.40855 	-3.59542e-20 5.60711 	-3.41785 	-3.57311e-20 5.59785 	-3.4265 	-3.68828e-20 5.58845 	-3.43347 	-4.16938e-20 5.57892 	-3.4405 	-4.65506e-20 5.45902 	-3.53671 	-2.82821e-20 5.3338 	-3.63096 	-9.44065e-21 5.20776 	-3.70791 	1.29817e-22 5.08154 	-3.76681 	-1.76725e-22 4.93261 	-3.83208 	7.92843e-23 4.93234 	-3.83223 	4.53704e-23 4.93207 	-3.83238 	1.1456e-23 4.93182 	-3.83248 	2.01118e-23 4.93158 	-3.83256 	5.04828e-23 4.93134 	-3.83264 	8.08642e-23 4.80565 	-3.88198 	1.13424e-21 4.67586 	-3.92971 	2.49195e-21 4.54895 	-3.96621 	4.21971e-21 4.43134 	-3.9833 	6.34459e-21 4.33602 	-3.99567 	8.21512e-21 4.30567 	-4.00333 	1.33647e-20 4.2751 	-4.01092 	1.85523e-20 4.24978 	-4.01264 	9.22666e-21 4.22458 	-4.014 	-8.28679e-22 4.19827 	-4.01535 	-1.12544e-20 4.12448 	-4.02266 	-6.36126e-20 4.04951 	-4.02944 	-1.15603e-19 3.9735 	-4.03555 	-1.65784e-19 3.90935 	-4.03002 	-1.01557e-19 3.85055 	-4.02464 	-4.30491e-20 3.77295 	-4.02678 	4.18439e-21 3.69546 	-4.02604 	4.20104e-20 3.62355 	-4.01392 	3.4211e-20 3.55057 	-4.00132 	2.66825e-20 3.4685 	-3.98683 	1.86538e-20 3.46518 	-3.98641 	1.92757e-20 3.46186 	-3.986 	1.98978e-20 3.45854 	-3.98558 	2.052e-20 3.45541 	-3.98486 	2.10422e-20 3.45236 	-3.98403 	2.15232e-20 3.38422 	-3.972 	1.41281e-20 3.31403 	-3.95784 	7.42002e-21 3.24263 	-3.94298 	7.06613e-22 3.17084 	-3.91593 	6.16599e-21 3.1032 	-3.88915 	1.23492e-20 3.0611 	-3.87914 	3.47288e-20 3.01869 	-3.86774 	5.06336e-20 2.97708 	-3.84877 	2.3362e-20 2.93505 	-3.82957 	-3.85258e-21 2.88983 	-3.80887 	-3.27901e-20 2.87172 	-3.80232 	-3.88898e-20 2.85353 	-3.79572 	-4.49918e-20 2.83525 	-3.78906 	-5.1096e-20 2.81707 	-3.78 	-5.72855e-20 2.79916 	-3.77049 	-6.33939e-20 2.74576 	-3.74943 	-1.07118e-19 2.69153 	-3.72787 	-1.50963e-19 2.63673 	-3.69722 	-1.46196e-19 2.58231 	-3.65984 	-8.8191e-20 2.52979 	-3.62373 	-3.27133e-20 2.51285 	-3.6148 	2.07409e-21 2.49587 	-3.60567 	3.52582e-20 2.47999 	-3.59327 	3.00015e-20 2.46404 	-3.58082 	2.47801e-20 2.44761 	-3.568 	1.94583e-20 2.41708 	-3.54892 	5.65603e-20 2.3863 	-3.52965 	9.35828e-20 2.35525 	-3.51018 	1.30524e-19 2.32527 	-3.48567 	1.03443e-19 2.29587 	-3.46124 	7.23036e-20 2.25894 	-3.43554 	4.2448e-20 2.22155 	-3.40952 	1.25601e-20 2.18697 	-3.37665 	-2.90926e-21 2.15216 	-3.34344 	-1.81173e-20 2.11502 	-3.3081 	-3.42249e-20 2.11132 	-3.30525 	-3.18072e-20 2.10762 	-3.30239 	-2.93922e-20 2.10391 	-3.29953 	-2.698e-20 2.10041 	-3.29611 	-3.40142e-20 2.09694 	-3.29268 	-4.13446e-20 2.06022 	-3.26039 	-1.64523e-19 2.0245 	-3.22606 	-2.56512e-19 1.98944 	-3.18995 	-2.99648e-19 1.95721 	-3.14906 	-1.93315e-19 1.92545 	-3.10883 	-8.89827e-20 1.91684 	-3.09914 	-7.78868e-20 1.90821 	-3.08944 	-6.67866e-20 1.90087 	-3.07859 	-5.65107e-20 1.89383 	-3.06747 	-4.64256e-20 1.88674 	-3.05628 	-3.62648e-20 1.86481 	-3.0309 	-1.17312e-20 1.84278 	-3.00542 	1.28237e-20 1.82119 	-2.97926 	2.99947e-20 1.80216 	-2.9503 	1.21634e-20 1.78328 	-2.92155 	-5.50441e-21 1.76988 	-2.90259 	-2.11253e-20 1.75646 	-2.8836 	-3.67345e-20 1.74522 	-2.8633 	-1.81007e-20 1.73492 	-2.84249 	1.47361e-20 1.72462 	-2.82165 	4.76793e-20 1.71229 	-2.80446 	1.2183e-20 1.69995 	-2.78725 	-2.32632e-20 1.68823 	-2.76956 	-3.4877e-20 1.67816 	-2.75071 	1.29902e-20 1.66812 	-2.73192 	6.07263e-20 1.65479 	-2.70772 	1.97497e-19 1.64149 	-2.68354 	3.34207e-19 1.63057 	-2.65859 	2.96403e-19 1.62141 	-2.63315 	1.33635e-19 1.6125 	-2.60811 	-2.78218e-20 1.60469 	-2.59475 	-5.73704e-20 1.5969 	-2.5814 	-8.69271e-20 1.58991 	-2.5677 	-8.97702e-20 1.58403 	-2.55354 	-5.62777e-20 1.57817 	-2.53938 	-2.27585e-20 1.56818 	-2.51487 	-2.46206e-20 1.5583 	-2.49044 	-2.65226e-20 1.55036 	-2.4659 	-1.93297e-20 1.54493 	-2.4412 	-4.99467e-22 1.53986 	-2.41739 	1.77497e-20 1.53321 	-2.40291 	2.97229e-20 1.5266 	-2.38844 	4.16913e-20 1.52129 	-2.37376 	4.57217e-20 1.51694 	-2.35893 	4.40982e-20 1.51262 	-2.34406 	4.24447e-20 1.50738 	-2.32432 	2.55675e-20 1.50227 	-2.3047 	8.66478e-21 1.49824 	-2.28529 	-3.13054e-21 1.49689 	-2.26624 	-1.1189e-21 1.49579 	-2.24808 	8.13612e-22 1.48882 	-2.22757 	7.62583e-20 1.48196 	-2.20714 	1.5193e-19 1.47769 	-2.18689 	1.25788e-19 1.47436 	-2.16678 	6.78068e-20 1.47114 	-2.1465 	8.9984e-21 1.46994 	-2.13596 	-2.3358e-20 1.46879 	-2.12547 	-5.56709e-20 1.46791 	-2.11515 	-8.19964e-20 1.46944 	-2.10626 	-3.64821e-20 1.471 	-2.0977 	7.88484e-21 1.46387 	-2.06748 	4.60805e-21 1.45705 	-2.03755 	1.31348e-21 1.45627 	-2.01098 	-2.34552e-20 1.45684 	-1.98528 	-5.17308e-20 1.45945 	-1.96231 	-7.4857e-20 1.45898 	-1.96035 	-6.8508e-20 1.45851 	-1.95838 	-6.2214e-20 1.45846 	-1.95663 	-6.69662e-20 1.45841 	-1.95487 	-7.1716e-20 1.45836 	-1.95311 	-7.64762e-20 1.45649 	-1.92819 	-2.0948e-19 1.45498 	-1.90357 	-3.41749e-19 1.45421 	-1.87953 	-4.46515e-19 1.45846 	-1.85931 	-1.91163e-19 1.46282 	-1.84095 	4.70795e-20 1.46067 	-1.82605 	1.11185e-19 1.45864 	-1.81123 	1.7507e-19 1.45956 	-1.79855 	1.42356e-19 1.46061 	-1.78596 	1.09743e-19 1.46181 	-1.77313 	7.631e-20 1.46274 	-1.76357 	6.7388e-20 1.46374 	-1.75408 	5.84879e-20 1.46483 	-1.74465 	4.96101e-20 1.46744 	-1.73647 	5.16813e-20 1.47011 	-1.72871 	5.41964e-20 1.46959 	-1.70545 	2.9507e-20 1.46943 	-1.68247 	4.75572e-21 1.47234 	-1.66191 	2.02252e-20 1.47695 	-1.64245 	4.53105e-20 1.48289 	-1.62534 	6.85409e-20 1.48287 	-1.62127 	6.74209e-20 1.48295 	-1.61726 	6.75854e-20 1.48354 	-1.61364 	7.51531e-20 1.48415 	-1.61003 	8.27189e-20 1.48477 	-1.60638 	9.03731e-20 1.48748 	-1.59065 	1.39733e-19 1.49045 	-1.57511 	1.88971e-19 1.49369 	-1.55978 	2.38084e-19 1.49886 	-1.54629 	1.68531e-19 1.50427 	-1.53411 	8.22753e-20 1.50593 	-1.51461 	1.55658e-19 1.50843 	-1.49584 	2.03772e-19 1.51305 	-1.47902 	1.6191e-19 1.51802 	-1.46245 	1.20578e-19 1.52372 	-1.44496 	7.67813e-20 1.52375 	-1.44489 	7.65563e-20 1.52377 	-1.44483 	7.63313e-20 1.52379 	-1.44477 	7.61064e-20 1.52382 	-1.44472 	7.64054e-20 1.52385 	-1.44466 	7.69341e-20 1.52825 	-1.42764 	1.26482e-19 1.53305 	-1.41089 	1.74523e-19 1.53823 	-1.39441 	2.22173e-19 1.545 	-1.37969 	1.84231e-19 1.5521 	-1.36677 	1.17104e-19 1.55543 	-1.34916 	2.0313e-19 1.55963 	-1.33245 	2.39637e-19 1.56528 	-1.3173 	1.74895e-19 1.57126 	-1.3024 	1.10367e-19 1.57761 	-1.28886 	3.78239e-20 1.57784 	-1.28786 	3.75695e-20 1.57812 	-1.2869 	3.67306e-20 1.57844 	-1.28601 	3.51546e-20 1.57876 	-1.28512 	3.35782e-20 1.57909 	-1.28422 	3.19925e-20 1.58431 	-1.27029 	-1.34917e-20 1.58982 	-1.25655 	-5.88968e-20 1.59563 	-1.243 	-1.0422e-19 1.60233 	-1.23066 	-8.93415e-20 1.60939 	-1.21994 	-3.00723e-20 1.61383 	-1.20442 	-7.54567e-20 1.61859 	-1.18911 	-1.21255e-19 1.62467 	-1.17573 	-1.0386e-19 1.63197 	-1.16308 	-6.09347e-20 1.63999 	-1.1517 	3.29608e-22 1.64228 	-1.14486 	2.88296e-20 1.6449 	-1.13852 	2.83182e-20 1.64776 	-1.13256 	7.13093e-21 1.65069 	-1.12663 	-1.40055e-20 1.65383 	-1.12045 	-3.61451e-20 1.65747 	-1.11363 	-6.80416e-20 1.66119 	-1.10686 	-9.98266e-20 1.66501 	-1.10015 	-1.31499e-19 1.66904 	-1.09387 	-1.31061e-19 1.67328 	-1.08839 	-7.98806e-20 1.67842 	-1.07465 	-1.11917e-19 1.68445 	-1.0614 	-1.36096e-19 1.69178 	-1.04899 	-1.45542e-19 1.69997 	-1.03838 	-1.35213e-19 1.70805 	-1.02841 	-1.25225e-19 1.71383 	-1.01491 	-2.75524e-19 1.72009 	-1.00221 	-3.50406e-19 1.72697 	-0.990769 	-2.96334e-19 1.73412 	-0.979489 	-2.4277e-19 1.74242 	-0.969414 	-1.16065e-19 1.74452 	-0.965069 	-8.24807e-20 1.74678 	-0.961176 	-8.46992e-20 1.74909 	-0.957417 	-9.65862e-20 1.75143 	-0.953675 	-1.08425e-19 1.7539 	-0.94979 	-1.20724e-19 1.75877 	-0.942439 	-1.24331e-19 1.76374 	-0.935154 	-1.2791e-19 1.76884 	-0.927937 	-1.31462e-19 1.77408 	-0.921008 	-1.29654e-19 1.77941 	-0.915246 	-1.0528e-19 1.78546 	-0.903315 	-1.3289e-19 1.79251 	-0.891958 	-1.44768e-19 1.80045 	-0.881106 	-1.43541e-19 1.80877 	-0.872037 	-1.02972e-19 1.81705 	-0.863507 	-6.09472e-20 1.82366 	-0.851815 	-1.64905e-19 1.83053 	-0.840289 	-2.67041e-19 1.83769 	-0.830596 	-2.25725e-19 1.84591 	-0.821491 	-1.27943e-19 1.85459 	-0.813045 	4.38602e-23 1.86121 	-0.802485 	1.42175e-22 1.86798 	-0.793559 	1.07552e-22 1.87496 	-0.784775 	6.89012e-23 1.88212 	-0.776092 	2.98214e-23 1.8905 	-0.766319 	-1.51652e-23 1.89088 	-0.765905 	7.04696e-22 1.89125 	-0.765492 	1.42409e-21 1.89163 	-0.765079 	2.14301e-21 1.89201 	-0.764666 	2.86147e-21 1.89237 	-0.764334 	4.19319e-22 1.89985 	-0.75488 	-2.52563e-20 1.90764 	-0.745597 	-4.71258e-20 1.91566 	-0.736425 	-6.8817e-20 1.92389 	-0.727374 	-8.98873e-20 1.9318 	-0.720386 	-3.12036e-20 1.93868 	-0.71043 	-2.11331e-20 1.94625 	-0.700914 	-1.39363e-20 1.95463 	-0.69193 	-1.04229e-20 1.9628 	-0.684657 	-1.59892e-20 1.97094 	-0.677789 	-2.24542e-20 1.97826 	-0.668082 	5.39365e-20 1.98579 	-0.658477 	1.3044e-19 1.99322 	-0.650389 	1.32357e-19 2.00153 	-0.643443 	6.57217e-20 2.00987 	-0.6367 	1.63282e-22 2.01758 	-0.627247 	9.71248e-23 2.02511 	-0.61887 	-1.11748e-20 2.03253 	-0.611329 	-3.10204e-20 2.04013 	-0.603867 	-5.08423e-20 2.0486 	-0.597228 	-6.38706e-20 2.05551 	-0.58952 	-1.06457e-19 2.06204 	-0.583008 	-1.10013e-19 2.06871 	-0.576553 	-1.1363e-19 2.07551 	-0.570156 	-1.17305e-19 2.08348 	-0.562872 	-1.21594e-19 2.08424 	-0.562209 	-1.22776e-19 2.085 	-0.561546 	-1.23956e-19 2.08576 	-0.560883 	-1.25136e-19 2.08653 	-0.560221 	-1.26316e-19 2.08723 	-0.559684 	-1.22316e-19 2.09469 	-0.552383 	-9.43353e-20 2.10238 	-0.545225 	-6.5092e-20 2.11025 	-0.538137 	-3.58867e-20 2.11829 	-0.531117 	-6.71937e-21 2.12556 	-0.525626 	1.79225e-22 2.13271 	-0.51786 	6.74854e-20 2.14054 	-0.510878 	8.63796e-20 2.14855 	-0.503986 	1.03518e-19 2.1562 	-0.497908 	8.43372e-20 2.16322 	-0.49299 	1.49103e-20 2.1706 	-0.485467 	-5.50289e-20 2.17821 	-0.478093 	-1.18715e-19 2.18628 	-0.471451 	-1.34999e-19 2.1932 	-0.466586 	-6.7269e-20 2.20018 	-0.461805 	-7.25172e-23 2.20776 	-0.454525 	-3.96147e-23 2.21552 	-0.447303 	-6.88452e-24 2.22264 	-0.441438 	0 2.22948 	-0.436721 	0 2.23639 	-0.432078 	0 2.24414 	-0.425039 	0 2.25181 	-0.41832 	0 2.25831 	-0.413084 	0 2.26501 	-0.408309 	-1.0153e-20 2.27181 	-0.403803 	-2.51746e-20 2.2797 	-0.397004 	-6.23902e-21 2.28661 	-0.391366 	-6.35034e-21 2.29311 	-0.386316 	-1.58162e-20 2.29973 	-0.38133 	-2.67463e-20 2.3064 	-0.376962 	-6.64872e-20 2.31411 	-0.370648 	-2.84722e-20 2.32046 	-0.365747 	-3.02617e-20 2.32693 	-0.360879 	-3.2023e-20 2.33351 	-0.356044 	-3.37563e-20 2.34011 	-0.351526 	-4.6471e-20 2.34636 	-0.346662 	-3.69107e-20 2.35197 	-0.342445 	-3.8362e-20 2.35767 	-0.338252 	-3.97918e-20 2.36347 	-0.334083 	-4.12002e-20 2.37032 	-0.329261 	-4.28144e-20 2.37084 	-0.328907 	-4.26966e-20 2.37136 	-0.328553 	-4.2579e-20 2.37188 	-0.328199 	-4.24615e-20 2.3724 	-0.327845 	-4.23442e-20 2.37286 	-0.327545 	-4.25209e-20 2.37902 	-0.322955 	-4.92045e-20 2.38529 	-0.318419 	-5.37539e-20 2.39166 	-0.313911 	-5.82263e-20 2.39814 	-0.30943 	-6.26222e-20 2.40378 	-0.305702 	-3.89669e-20 2.41011 	-0.300986 	-7.51586e-20 2.41627 	-0.296626 	-8.72919e-20 2.42254 	-0.292291 	-9.93663e-20 2.42891 	-0.287981 	-1.11382e-19 2.43355 	-0.284993 	-7.13066e-20 2.44013 	-0.280209 	-1.18581e-19 2.44617 	-0.276022 	-1.21108e-19 2.45231 	-0.271857 	-1.23588e-19 2.4582 	-0.267952 	-1.19e-19 2.46217 	-0.265388 	-7.53457e-20 2.46879 	-0.260771 	-1.17874e-19 2.47495 	-0.256566 	-1.28011e-19 2.48095 	-0.25257 	-1.22406e-19 2.48589 	-0.249308 	-9.47997e-20 2.48963 	-0.246849 	-4.31989e-20 2.49621 	-0.242435 	4.31573e-20 2.5026 	-0.238215 	1.03853e-19 2.50844 	-0.234385 	1.0935e-19 2.51242 	-0.231696 	5.03682e-20 2.51591 	-0.22934 	-2.66965e-20 2.52245 	-0.225126 	-1.75932e-20 2.5291 	-0.22093 	-8.49974e-21 2.53461 	-0.217346 	8.66905e-21 2.53779 	-0.215078 	2.59572e-20 2.54103 	-0.212824 	4.32201e-20 2.5475 	-0.208805 	-4.33231e-20 2.55408 	-0.204803 	-1.29879e-19 2.55907 	-0.201581 	-1.41243e-19 2.56199 	-0.199413 	-7.10823e-20 2.56497 	-0.197258 	-1.02017e-21 2.57137 	-0.19343 	-1.0654e-22 2.57787 	-0.189617 	7.86296e-22 2.58238 	-0.186731 	-1.56697e-20 2.58504 	-0.184662 	-4.94159e-20 2.58774 	-0.182603 	-8.31371e-20 2.59406 	-0.178962 	-4.76818e-20 2.60047 	-0.175335 	-1.22422e-20 2.60454 	-0.172759 	-8.54653e-21 2.60693 	-0.170786 	-2.59299e-20 2.60937 	-0.168821 	-4.32976e-20 2.61558 	-0.165363 	-2.59872e-20 2.62189 	-0.161919 	-8.71091e-21 2.6255 	-0.159641 	-9.45537e-21 2.62769 	-0.157744 	-2.60533e-20 2.62986 	-0.155873 	-4.33785e-20 2.63597 	-0.152592 	-1.64884e-19 2.64161 	-0.149537 	-2.61782e-19 2.64506 	-0.147378 	-2.57091e-19 2.64732 	-0.145499 	-1.64746e-19 2.64923 	-0.143718 	-4.3359e-20 2.65522 	-0.140611 	-2.59812e-20 2.66022 	-0.137903 	-8.62101e-21 2.66351 	-0.135859 	8.7088e-21 2.66586 	-0.134012 	2.13084e-20 2.66749 	-0.132319 	3.02503e-20 2.67336 	-0.129381 	9.13181e-20 2.67775 	-0.126983 	1.18687e-19 2.68087 	-0.125051 	1.17013e-19 2.68331 	-0.123248 	9.211e-20 2.68469 	-0.121641 	3.16743e-20 2.69043 	-0.118866 	2.32325e-20 2.69423 	-0.116743 	1.48068e-20 2.69718 	-0.114919 	6.38621e-21 2.69971 	-0.11317 	0 2.70083 	-0.111647 	0 2.70644 	-0.10903 	0 2.70968 	-0.107152 	1.47207e-20 2.71246 	-0.105432 	3.2551e-20 2.71509 	-0.103744 	5.03661e-20 2.71596 	-0.102303 	6.81079e-20 2.72143 	-0.0998395 	1.90104e-19 2.72415 	-0.0981768 	1.9361e-19 2.72676 	-0.0965583 	1.91082e-19 2.72942 	-0.094943 	1.88605e-19 2.7301 	-0.0935753 	7.02147e-20 2.73524 	-0.0913123 	5.32007e-20 2.73765 	-0.0897884 	3.62399e-20 2.7401 	-0.0882674 	1.92709e-20 2.7426 	-0.0867491 	2.29377e-21 2.74328 	-0.0854329 	1.46976e-20 2.74797 	-0.0833866 	-4.34449e-24 2.75023 	-0.081957 	-2.98903e-23 2.75252 	-0.0805299 	-5.54259e-23 2.75486 	-0.0791051 	-8.09513e-23 2.75554 	-0.0778445 	6.38872e-21 2.75981 	-0.0759933 	-5.08033e-20 2.76191 	-0.0746544 	-4.95041e-20 2.76406 	-0.0733175 	-4.82324e-20 2.76624 	-0.0719828 	-4.69882e-20 2.76692 	-0.0707809 	-5.64332e-21 2.77079 	-0.0691052 	8.55974e-23 2.77275 	-0.0678533 	6.04914e-23 2.77474 	-0.0666032 	3.53756e-23 2.77677 	-0.0653549 	1.02501e-23 2.77745 	-0.0642138 	0 2.78096 	-0.0626961 	1.11921e-20 2.78277 	-0.0615277 	3.75153e-20 2.78462 	-0.0603608 	6.38297e-20 2.7865 	-0.0591955 	9.01355e-20 2.78717 	-0.0581163 	1.07499e-19 2.79034 	-0.0567408 	1.73092e-19 2.79201 	-0.0556524 	1.72013e-19 2.79372 	-0.0545652 	1.70963e-19 2.79546 	-0.0534793 	1.6994e-19 2.79612 	-0.0524625 	1.0249e-19 2.79897 	-0.0512153 	8.75816e-20 2.80052 	-0.0502032 	5.31483e-20 2.80209 	-0.0491922 	1.87095e-20 2.80369 	-0.0481824 	-1.57347e-20 2.80433 	-0.0472278 	-4.66893e-20 2.8069 	-0.0460962 	-9.02016e-20 2.80832 	-0.0451571 	-8.89938e-20 2.80976 	-0.0442188 	-8.78198e-20 2.81123 	-0.0432815 	-8.66796e-20 2.81184 	-0.0423884 	-3.70511e-20 2.81416 	-0.0413614 	-4.95307e-20 2.81545 	-0.0404917 	-3.17101e-20 2.81677 	-0.0396227 	-1.39075e-20 2.81812 	-0.0387545 	3.87731e-21 2.81869 	-0.0379217 	4.31037e-20 2.82078 	-0.0369893 	4.98643e-20 2.82196 	-0.0361856 	6.73352e-20 2.82316 	-0.0353826 	8.47978e-20 2.82439 	-0.0345802 	1.02252e-19 2.82492 	-0.0338062 	1.22067e-19 2.8268 	-0.0329596 	1.46222e-19 2.82787 	-0.0322185 	1.37e-19 2.82896 	-0.0314781 	1.27798e-19 2.83008 	-0.0307381 	1.18618e-19 2.83057 	-0.0300211 	8.16891e-20 2.83225 	-0.0292524 	5.8065e-20 2.83323 	-0.0285707 	3.23169e-20 2.83422 	-0.0278896 	6.56697e-21 2.83523 	-0.0272088 	-1.91848e-20 2.83566 	-0.0265467 	-4.10466e-20 2.83718 	-0.0258488 	-5.61586e-20 2.83806 	-0.0252234 	-3.8385e-20 2.83895 	-0.0245983 	-2.06374e-20 2.83986 	-0.0239736 	-2.91587e-21 2.84024 	-0.0233641 	4.84818e-20 2.84162 	-0.0227308 	1.02311e-19 2.8424 	-0.0221584 	1.09992e-19 2.8432 	-0.0215863 	1.17717e-19 2.84402 	-0.0210144 	1.25484e-19 2.84434 	-0.0204552 	8.86209e-20 2.84559 	-0.019881 	7.17992e-20 2.84629 	-0.0193585 	6.32555e-20 2.84701 	-0.0188363 	5.47076e-20 2.84774 	-0.0183143 	4.61557e-20 2.84799 	-0.0178029 	3.76064e-20 2.84913 	-0.0172827 	1.44102e-20 2.84975 	-0.0168072 	1.47575e-20 2.85039 	-0.0163318 	1.50822e-20 2.85104 	-0.0158567 	1.53843e-20 2.85122 	-0.0153906 	4.14743e-20 2.85228 	-0.014919