# vtk DataFile Version 2.0
track0
ASCII
DATASET POLYDATA
POINTS 12278 float
-0.0205 0.001 1e-05
-0.02052 0.000999216 1e-05
-0.02054 0.000998592 1e-05
-0.02056 0.000998126 1e-05
-0.02058 0.000997818 1e-05
-0.0206 0.000997665 1e-05
-0.0205 0.00367778 1e-05
-0.02052 0.00367703 1e-05
-0.02054 0.00367643 1e-05
-0.02056 0.00367599 1e-05
-0.02058 0.00367569 1e-05
-0.0206 0.00367554 1e-05
-0.0205 0.00635556 1e-05
-0.02052 0.00635527 1e-05
-0.02054 0.00635505 1e-05
-0.02056 0.00635488 1e-05
-0.02058 0.00635476 1e-05
-0.0206 0.00635471 1e-05
-0.0205 0.00903333 1e-05
-0.02052 0.00903311 1e-05
-0.02054 0.00903293 1e-05
-0.02056 0.0090328 1e-05
-0.02058 0.00903271 1e-05
-0.0206 0.00903266 1e-05
-0.0205 0.0117111 1e-05
-0.02052 0.0117111 1e-05
-0.02054 0.011711 1e-05
-0.02056 0.011711 1e-05
-0.02058 0.011711 1e-05
-0.0206 0.011711 1e-05
-0.0205 0.0143889 1e-05
-0.02052 0.014389 1e-05
-0.02054 0.014389 1e-05
-0.02056 0.0143891 1e-05
-0.02058 0.0143891 1e-05
-0.0206 0.0143891 1e-05
-0.0205 0.0170667 1e-05
-0.02052 0.017067 1e-05
-0.02054 0.0170672 1e-05
-0.02056 0.0170674 1e-05
-0.02058 0.0170675 1e-05
-0.0206 0.0170676 1e-05
-0.0205 0.0197444 1e-05
-0.02052 0.019745 1e-05
-0.02054 0.0197454 1e-05
-0.02056 0.0197457 1e-05
-0.02058 0.0197459 1e-05
-0.0206 0.019746 1e-05
-0.0205 0.0224222 1e-05
-0.02052 0.022423 1e-05
-0.02054 0.0224236 1e-05
-0.02056 0.0224241 1e-05
-0.02058 0.0224244 1e-05
-0.0206 0.0224245 1e-05
-0.0205 0.0251 1e-05
-0.02052 0.0251003 1e-05
-0.02054 0.0251005 1e-05
-0.02056 0.0251007 1e-05
-0.02058 0.0251008 1e-05
-0.0206 0.0251008 1e-05
-0.0205 0.001 1e-05
-0.0203632 0.00100536 1e-05
-0.0202266 0.00101331 1e-05
-0.0200901 0.00102296 1e-05
-0.0200427 0.00102682 1e-05
-0.0198376 0.00104418 1e-05
-0.0196338 0.00107322 1e-05
-0.0194327 0.00111734 1e-05
-0.0192368 0.00118024 1e-05
-0.0190172 0.00124951 1e-05
-0.0189002 0.00128348 1e-05
-0.0187827 0.00131598 1e-05
-0.0186649 0.001347 1e-05
-0.0185469 0.001377 1e-05
-0.0183807 0.00141936 1e-05
-0.0182041 0.00146458 1e-05
-0.0180267 0.00150692 1e-05
-0.0178487 0.0015464 1e-05
-0.0176703 0.00158389 1e-05
-0.0174976 0.00161991 1e-05
-0.0172846 0.00166394 1e-05
-0.0170715 0.00170741 1e-05
-0.0168583 0.00175029 1e-05
-0.0166449 0.00179219 1e-05
-0.0163945 0.00184007 1e-05
-0.0163234 0.00185324 1e-05
-0.0162522 0.00186629 1e-05
-0.016181 0.00187921 1e-05
-0.0161097 0.00189201 1e-05
-0.0160387 0.0019046 1e-05
-0.0157586 0.0019535 1e-05
-0.0154779 0.00199931 1e-05
-0.0151968 0.00204225 1e-05
-0.0149154 0.00208283 1e-05
-0.0146381 0.00212134 1e-05
-0.0143838 0.00215527 1e-05
-0.0141293 0.00218766 1e-05
-0.0138747 0.00221855 1e-05
-0.0136198 0.00224797 1e-05
-0.0132934 0.00228369 1e-05
-0.0132791 0.00228515 1e-05
-0.0132648 0.0022866 1e-05
-0.0132504 0.00228805 1e-05
-0.0132361 0.0022895 1e-05
-0.0132214 0.00229098 1e-05
-0.0129776 0.00231543 1e-05
-0.0127337 0.00233865 1e-05
-0.0124897 0.00236061 1e-05
-0.0122456 0.00238129 1e-05
-0.0120025 0.00240058 1e-05
-0.0117547 0.00241909 1e-05
-0.0115067 0.00243627 1e-05
-0.0112587 0.00245231 1e-05
-0.0110106 0.00246734 1e-05
-0.0107632 0.00248136 1e-05
-0.0105252 0.00249391 1e-05
-0.0102872 0.00250547 1e-05
-0.0100491 0.00251602 1e-05
-0.00981105 0.00252575 1e-05
-0.00957337 0.00253471 1e-05
-0.00934491 0.00254261 1e-05
-0.00911643 0.00254974 1e-05
-0.00888792 0.0025561 1e-05
-0.0086594 0.00256171 1e-05
-0.00843108 0.00256668 1e-05
-0.00821175 0.00257084 1e-05
-0.00799241 0.00257439 1e-05
-0.00777306 0.00257731 1e-05
-0.0075537 0.00257952 1e-05
-0.00733443 0.00258114 1e-05
-0.00712387 0.00258212 1e-05
-0.0069133 0.00258255 1e-05
-0.00670273 0.00258243 1e-05
-0.00649216 0.00258162 1e-05
-0.0062816 0.00258017 1e-05
-0.00607944 0.00257819 1e-05
-0.0058773 0.00257565 1e-05
-0.00567516 0.00257256 1e-05
-0.00547303 0.00256874 1e-05
-0.00527083 0.00256419 1e-05
-0.00507675 0.00255912 1e-05
-0.00488269 0.00255342 1e-05
-0.00468865 0.0025471 1e-05
-0.00449464 0.00253997 1e-05
-0.00430044 0.0025319 1e-05
-0.00411412 0.00252329 1e-05
-0.00392784 0.00251388 1e-05
-0.00374159 0.00250368 1e-05
-0.0035554 0.00249254 1e-05
-0.00336883 0.00248015 1e-05
-0.00318995 0.00246711 1e-05
-0.00301115 0.00245299 1e-05
-0.00283245 0.00243774 1e-05
-0.00265386 0.0024212 1e-05
-0.00247443 0.00240314 1e-05
-0.0023027 0.00238425 1e-05
-0.00213114 0.00236383 1e-05
-0.00195982 0.00234153 1e-05
-0.00178875 0.00231737 1e-05
-0.00161577 0.00229105 1e-05
-0.00161569 0.00229103 1e-05
-0.00161561 0.00229102 1e-05
-0.00161552 0.002291 1e-05
-0.00161544 0.00229099 1e-05
-0.00161535 0.00229098 1e-05
-0.00145057 0.00226407 1e-05
-0.00128618 0.00223481 1e-05
-0.00112222 0.00220325 1e-05
-0.000958708 0.00216946 1e-05
-0.000791418 0.00213235 1e-05
-0.000633135 0.00209424 1e-05
-0.000475556 0.00205331 1e-05
-0.000318719 0.00200962 1e-05
-0.000162835 0.00196265 1e-05
0 0.0019095 1e-05
3.73303e-05 0.0018963 1e-05
7.45607e-05 0.00188283 1e-05
0.000111693 0.00186908 1e-05
0.000148727 0.00185508 1e-05
0.00017903 0.00184338 1e-05
0.000248902 0.00181593 1e-05
0.000318362 0.00178747 1e-05
0.000387397 0.00175799 1e-05
0.000455992 0.00172749 1e-05
0.000528387 0.00169411 1e-05
0.000634886 0.00164313 1e-05
0.000740278 0.0015899 1e-05
0.00084451 0.00153443 1e-05
0.00094762 0.0014769 1e-05
0.00101983 0.00143468 1e-05
0.00102804 0.00142972 1e-05
0.00103624 0.00142475 1e-05
0.00104443 0.00141975 1e-05
0.00105261 0.00141474 1e-05
0.00106088 0.00140967 1e-05
0.00116821 0.00134348 1e-05
0.00127404 0.00127492 1e-05
0.00137827 0.00120396 1e-05
0.00148099 0.00113083 1e-05
0.00159663 0.00104511 1e-05
0.00159681 0.00104497 1e-05
0.00159698 0.00104483 1e-05
0.00159716 0.00104469 1e-05
0.00159734 0.00104455 1e-05
0.00159752 0.00104442 1e-05
0.00169217 0.000970857 1e-05
0.00178541 0.000895533 1e-05
0.00187718 0.00081841 1e-05
0.00196753 0.000739634 1e-05
0.00203792 0.000676366 1e-05
0.002058 0.000657861 1e-05
0.002078 0.000639266 1e-05
0.00209791 0.000620581 1e-05
0.00211777 0.000601834 1e-05
0.00213833 0.000582301 1e-05
0.00219144 0.0005315 1e-05
0.00224406 0.000480182 1e-05
0.00229616 0.000428339 1e-05
0.00234773 0.000375966 1e-05
0.00239401 0.000328255 1e-05
0.00245188 0.000267774 1e-05
0.00250911 0.000206692 1e-05
0.00256571 0.000145028 1e-05
0.0026218 8.28965e-05 1e-05
0.00268334 1.35473e-05 1e-05
0.00268569 1.08378e-05 1e-05
0.00268805 8.12738e-06 1e-05
0.00269041 5.41593e-06 1e-05
0.00269276 2.70347e-06 1e-05
0.0026951 0 1e-05
0.002759 -7.37367e-05 1e-05
0.00282228 -0.000148005 1e-05
0.00288492 -0.000222813 1e-05
0.00294689 -0.000298172 1e-05
0.00300396 -0.000368654 1e-05
0.00304969 -0.000425959 1e-05
0.0030951 -0.000483509 1e-05
0.00314021 -0.000541302 1e-05
0.00318507 -0.00059929 1e-05
0.00323259 -0.000661295 1e-05
0.00325061 -0.000685055 1e-05
0.00326859 -0.000708854 1e-05
0.00328651 -0.000732693 1e-05
0.00330438 -0.000756572 1e-05
0.00332191 -0.000780089 1e-05
0.00339005 -0.000871876 1e-05
0.00345759 -0.000964106 1e-05
0.00352451 -0.00105679 1e-05
0.00359088 -0.00114986 1e-05
0.00365375 -0.00123896 1e-05
0.00368022 -0.00127688 1e-05
0.00370661 -0.00131485 1e-05
0.00373294 -0.00135287 1e-05
0.0037592 -0.00139093 1e-05
0.00378611 -0.00143003 1e-05
0.00383007 -0.00149412 1e-05
0.00387382 -0.00155835 1e-05
0.00391735 -0.00162273 1e-05
0.00396065 -0.00168727 1e-05
0.00400279 -0.00175043 1e-05
0.00407102 -0.0018533 1e-05
0.00413883 -0.00195643 1e-05
0.00420621 -0.00205985 1e-05
0.00427331 -0.00216345 1e-05
0.00434393 -0.00227315 1e-05
0.00434996 -0.00228258 1e-05
0.00435598 -0.00229202 1e-05
0.004362 -0.00230145 1e-05
0.00436802 -0.00231089 1e-05
0.00437402 -0.0023203 1e-05
0.00445487 -0.00244725 1e-05
0.00453527 -0.00257448 1e-05
0.00461527 -0.00270197 1e-05
0.00469491 -0.00282968 1e-05
0.00477279 -0.00295497 1e-05
0.00479945 -0.00299802 1e-05
0.00482608 -0.00304108 1e-05
0.00485269 -0.00308416 1e-05
0.00487929 -0.00312724 1e-05
0.00490609 -0.00317065 1e-05
0.00496671 -0.00326884 1e-05
0.00502718 -0.00336713 1e-05
0.00508751 -0.00346551 1e-05
0.00514769 -0.00356397 1e-05
0.00520733 -0.00366161 1e-05
0.00526039 -0.00374853 1e-05
0.00531341 -0.00383548 1e-05
0.00536639 -0.00392246 1e-05
0.00541939 -0.00400942 1e-05
0.00547262 -0.00409663 1e-05
0.00551559 -0.00416693 1e-05
0.00555852 -0.00423725 1e-05
0.00560142 -0.00430759 1e-05
0.0056443 -0.00437793 1e-05
0.00568711 -0.00444811 1e-05
0.0057584 -0.00456486 1e-05
0.00582974 -0.00468159 1e-05
0.00590112 -0.00479828 1e-05
0.00597264 -0.0049149 1e-05
0.00604356 -0.00503007 1e-05
0.00607981 -0.00508871 1e-05
0.00611607 -0.00514734 1e-05
0.00615234 -0.00520597 1e-05
0.00618863 -0.00526458 1e-05
0.00622503 -0.00532326 1e-05
0.00630381 -0.00545002 1e-05
0.00638278 -0.00557667 1e-05
0.00646195 -0.00570319 1e-05
0.00654139 -0.00582955 1e-05
0.00661893 -0.00595208 1e-05
0.00666283 -0.006021 1e-05
0.00670679 -0.00608989 1e-05
0.0067508 -0.00615875 1e-05
0.00679489 -0.00622755 1e-05
0.00683937 -0.00629671 1e-05
0.00691125 -0.00640811 1e-05
0.00698338 -0.00651934 1e-05
0.00705578 -0.00663041 1e-05
0.00712846 -0.00674128 1e-05
0.00719878 -0.00684774 1e-05
0.00726948 -0.006954 1e-05
0.0073404 -0.00706011 1e-05
0.00741154 -0.00716607 1e-05
0.007483 -0.00727182 1e-05
0.00755599 -0.00737909 1e-05
0.00760142 -0.00744538 1e-05
0.00764697 -0.00751158 1e-05
0.00769266 -0.00757769 1e-05
0.00773847 -0.0076437 1e-05
0.00778313 -0.00770772 1e-05
0.00790091 -0.00787568 1e-05
0.00801946 -0.00804311 1e-05
0.00813878 -0.00820997 1e-05
0.0082591 -0.00837613 1e-05
0.00837203 -0.00853003 1e-05
0.00837975 -0.0085404 1e-05
0.00838747 -0.00855077 1e-05
0.00839519 -0.00856114 1e-05
0.00840291 -0.0085715 1e-05
0.00841066 -0.00858189 1e-05
0.00852163 -0.00873051 1e-05
0.00863342 -0.00887851 1e-05
0.00874606 -0.00902588 1e-05
0.00885956 -0.00917258 1e-05
0.00896551 -0.00930765 1e-05
0.00903014 -0.00938899 1e-05
0.00909503 -0.00947011 1e-05
0.00916019 -0.00955102 1e-05
0.00922565 -0.00963169 1e-05
0.00929328 -0.00971439 1e-05
0.00934734 -0.00977997 1e-05
0.0094016 -0.00984539 1e-05
0.00945606 -0.00991064 1e-05
0.00951071 -0.00997574 1e-05
0.0095636 -0.0100383 1e-05
[...]
POINT_DATA 12278
 FIELD attributes 1
U 3 12278 float
9.72339 	0.381311 	0 9.77871 	0.305049 	0 9.83405 	0.228765 	0 9.8894 	0.152465 	0 9.94476 	0.0761532 	0 10 	0 	0
10.0671 	0.375483 	0 10.0537 	0.300387 	0 10.0403 	0.225271 	0 10.0268 	0.150141 	0 10.0134 	0.0750009 	0 10 	0 	0
10.0364 	0.141572 	0 10.0291 	0.113304 	0 10.0218 	0.085089 	0 10.0145 	0.0569263 	0 10.0071 	0.0288164 	0 10 	0 	0
10.0137 	0.111519 	0 10.011 	0.0892151 	0 10.0082 	0.0669108 	0 10.0055 	0.0446062 	0 10.0027 	0.0223012 	0 10 	0 	0
10.0097 	0.0196534 	0 10.0078 	0.0157227 	0 10.0058 	0.011792 	0 10.0039 	0.00786134 	0 10.0019 	0.00393066 	0 10 	0 	0
10.0102 	-0.0372875 	0 10.0082 	-0.02983 	0 10.0061 	-0.0223725 	0 10.0041 	-0.014915 	0 10.002 	-0.00745741 	0 10 	0 	0
10.0174 	-0.148997 	0 10.0139 	-0.119197 	0 10.0105 	-0.0893967 	0 10.007 	-0.0595953 	0 10.0035 	-0.0297932 	0 10 	0 	0
10.0362 	-0.265901 	0 10.029 	-0.212721 	0 10.0217 	-0.159534 	0 10.0145 	-0.106342 	0 10.0072 	-0.053146 	0 10 	0 	0
10.0563 	-0.387167 	0 10.045 	-0.309734 	0 10.0338 	-0.23228 	0 10.0225 	-0.15481 	0 10.0112 	-0.0773281 	0 10 	0 	0
8.30133 	-0.114495 	0 8.4287 	-0.091596 	0 8.55659 	-0.0686962 	0 8.68498 	-0.0457957 	0 8.81385 	-0.0228949 	0 8.94315 	0 	0
9.72339 	0.381311 	0 9.5415 	0.555241 	0 9.39671 	0.663651 	0 9.26203 	0.754272 	0 9.2183 	0.780385 	0 8.95344 	1.27614 	0 8.70578 	1.91036 	0 8.48173 	2.72184 	0 8.46724 	2.67123 	0 8.47252 	2.45986 	0 8.50117 	2.35314 	0 8.52498 	2.2443 	0 8.51221 	2.16311 	0 8.42487 	2.14738 	0 8.30214 	2.12559 	0 8.30117 	1.9821 	0 8.28715 	1.83798 	0 8.21181 	1.72569 	0 8.035 	1.67507 	0 7.86306 	1.62575 	0 7.68323 	1.56759 	0 7.50177 	1.50875 	0 7.42793 	1.45839 	0 7.36148 	1.40771 	0 7.27865 	1.34671 	0 7.22249 	1.32376 	0 7.16614 	1.3007 	0 7.10958 	1.27753 	0 7.07928 	1.2544 	0 7.05291 	1.23121 	0 6.97394 	1.13838 	0 6.88841 	1.05226 	0 6.79883 	0.980329 	0 6.71191 	0.932083 	0 6.6228 	0.883658 	0 6.55089 	0.833774 	0 6.49229 	0.787587 	0 6.44246 	0.743855 	0 6.3887 	0.69909 	0 6.31694 	0.642265 	0 6.31477 	0.64017 	0 6.3132 	0.638345 	0 6.31172 	0.636559 	0 6.31023 	0.63477 	0 6.30868 	0.632931 	0 6.27132 	0.597061 	0 6.23151 	0.560862 	0 6.18922 	0.524331 	0 6.1444 	0.487462 	0 6.10943 	0.456251 	0 6.07602 	0.420968 	0 6.04571 	0.390994 	0 6.01701 	0.364549 	0 5.99443 	0.339599 	0 5.97316 	0.315194 	0 5.95246 	0.28906 	0 5.92972 	0.262717 	0 5.91348 	0.241656 	0 5.9034 	0.222651 	0 5.89182 	0.203584 	0 5.87917 	0.183517 	0 5.86498 	0.16335 	0 5.85627 	0.143785 	0 5.85337 	0.127396 	0 5.8492 	0.11098 	0 5.84297 	0.0943453 	0 5.8355 	0.0776687 	0 5.83342 	0.0589661 	0 5.83631 	0.0430917 	0 5.83801 	0.0272179 	0 5.83718 	0.0119198 	0 5.83535 	-0.00344717 	0 5.83922 	-0.0225491 	0 5.84733 	-0.0400411 	0 5.85425 	-0.0574791 	0 5.85861 	-0.0735466 	0 5.86186 	-0.089588 	0 5.87122 	-0.110976 	0 5.88469 	-0.132515 	0 5.89666 	-0.153983 	0 5.90651 	-0.17335 	0 5.91508 	-0.192647 	0 5.92941 	-0.218107 	0 5.94829 	-0.247064 	0 5.96529 	-0.275881 	0 5.98123 	-0.302114 	0 5.99552 	-0.328198 	0 6.01456 	-0.359812 	0 6.03867 	-0.400978 	0 6.06027 	-0.4419 	0 6.08261 	-0.480365 	0 6.10482 	-0.520989 	0 6.13012 	-0.567647 	0 6.1546 	-0.619719 	0 6.17873 	-0.679532 	0 6.20611 	-0.738529 	0 6.23746 	-0.811923 	0 6.26494 	-0.884781 	0 6.28858 	-0.9571 	0 6.3087 	-1.02981 	0 6.30871 	-1.02985 	0 6.30873 	-1.02991 	0 6.30874 	-1.02997 	0 6.30876 	-1.03002 	0 6.30877 	-1.03008 	0 6.33257 	-1.12727 	0 6.35111 	-1.22235 	0 6.36453 	-1.31537 	0 6.37528 	-1.41407 	0 6.38857 	-1.53828 	0 6.40637 	-1.66402 	0 6.41793 	-1.78768 	0 6.4058 	-1.9302 	2.62102e-20 6.36944 	-2.07916 	5.37312e-20 6.31929 	-2.23394 	8.12337e-20 6.31108 	-2.28439 	2.33978e-20 6.2989 	-2.33171 	5.85174e-21 6.28254 	-2.37572 	3.12753e-20 6.26562 	-2.41948 	5.7319e-20 6.25129 	-2.45516 	7.9193e-20 6.22489 	-2.55103 	1.78969e-19 6.19655 	-2.64634 	2.82907e-19 6.16627 	-2.74106 	3.9098e-19 6.12011 	-2.82222 	2.74344e-19 6.06356 	-2.90257 	6.24907e-20 5.98359 	-3.02223 	4.92745e-20 5.89843 	-3.13892 	3.61882e-20 5.80156 	-3.23677 	8.57271e-21 5.70029 	-3.33268 	-1.80431e-20 5.62542 	-3.3992 	-3.61719e-20 5.61627 	-3.40851 	-3.59639e-20 5.60708 	-3.41781 	-3.5741e-20 5.59783 	-3.42646 	-3.68921e-20 5.58843 	-3.43342 	-4.17004e-20 5.5789 	-3.44045 	-4.65546e-20 5.45901 	-3.53666 	-2.82861e-20 5.33379 	-3.63091 	-9.44473e-21 5.20775 	-3.70785 	1.2784e-22 5.08152 	-3.76675 	-1.813e-22 4.93257 	-3.83204 	7.71143e-23 4.9323 	-3.83218 	4.41286e-23 4.93204 	-3.83233 	1.11426e-23 4.9318 	-3.83243 	1.95612e-23 4.93157 	-3.83251 	4.91009e-23 4.93134 	-3.83259 	7.86505e-23 4.80564 	-3.88193 	1.132e-21 4.67584 	-3.92966 	2.48971e-21 4.54893 	-3.96616 	4.21753e-21 4.43131 	-3.98325 	6.3425e-21 4.33599 	-3.99562 	8.21311e-21 4.30564 	-4.00328 	1.33613e-20 4.27508 	-4.01087 	1.85475e-20 4.24977 	-4.01259 	9.22439e-21 4.22458 	-4.01395 	-8.28296e-22 4.19828 	-4.0153 	-1.12512e-20 4.12448 	-4.02261 	-6.3616e-20 4.0495 	-4.02939 	-1.15613e-19 3.97348 	-4.0355 	-1.65798e-19 3.90932 	-4.02997 	-1.01564e-19 3.85052 	-4.02459 	-4.30495e-20 3.77293 	-4.02673 	4.17938e-21 3.69545 	-4.02599 	4.2002e-20 3.62355 	-4.01387 	3.42032e-20 3.55057 	-4.00128 	2.66752e-20 3.46852 	-3.98678 	1.86471e-20 3.46519 	-3.98637 	1.92706e-20 3.46186 	-3.98595 	1.98943e-20 3.45853 	-3.98553 	2.05182e-20 3.45539 	-3.98481 	2.10418e-20 3.45233 	-3.98397 	2.1524e-20 3.3842 	-3.97195 	1.4127e-20 3.31401 	-3.95779 	7.41884e-21 3.2426 	-3.94294 	7.05358e-22 3.17082 	-3.91588 	6.16724e-21 3.10318 	-3.8891 	1.23505e-20 3.06109 	-3.87909 	3.47271e-20 3.01868 	-3.8677 	5.06299e-20 2.97707 	-3.84873 	2.3362e-20 2.93506 	-3.82953 	-3.84895e-21 2.88985 	-3.80883 	-3.27823e-20 2.87173 	-3.80228 	-3.88844e-20 2.85353 	-3.79568 	-4.49887e-20 2.83524 	-3.78902 	-5.10953e-20 2.81705 	-3.77996 	-5.72872e-20 2.79913 	-3.77044 	-6.33978e-20 2.74574 	-3.74938 	-1.07123e-19 2.69151 	-3.72783 	-1.50968e-19 2.63671 	-3.69718 	-1.46195e-19 2.58229 	-3.6598 	-8.81891e-20 2.52976 	-3.62369 	-3.2711e-20 2.51283 	-3.61476 	2.06741e-21 2.49586 	-3.60563 	3.5243e-20 2.47998 	-3.59324 	2.99877e-20 2.46404 	-3.58079 	2.47674e-20 2.44761 	-3.56798 	1.94471e-20 2.41708 	-3.54889 	5.65555e-20 2.38629 	-3.52962 	9.35846e-20 2.35524 	-3.51014 	1.30532e-19 2.32525 	-3.48564 	1.03446e-19 2.29585 	-3.4612 	7.23013e-20 2.25892 	-3.4355 	4.24486e-20 2.22153 	-3.40949 	1.25637e-20 2.18696 	-3.37662 	-2.90415e-21 2.15215 	-3.34342 	-1.81106e-20 2.11502 	-3.30808 	-3.42166e-20 2.11131 	-3.30523 	-3.17958e-20 2.1076 	-3.30237 	-2.93779e-20 2.10389 	-3.2995 	-2.69627e-20 2.1004 	-3.29608 	-3.40056e-20 2.09691 	-3.29264 	-4.1345e-20 2.0602 	-3.26035 	-1.64562e-19 2.02447 	-3.22602 	-2.56551e-19 1.98942 	-3.18992 	-2.99651e-19 1.95719 	-3.14903 	-1.93316e-19 1.92542 	-3.1088 	-8.89834e-20 1.91682 	-3.09911 	-7.78904e-20 1.90819 	-3.08941 	-6.6793e-20 1.90086 	-3.07857 	-5.65198e-20 1.89382 	-3.06746 	-4.64373e-20 1.88672 	-3.05626 	-3.62791e-20 1.8648 	-3.03088 	-1.17425e-20 1.84276 	-3.0054 	1.28155e-20 1.82117 	-2.97924 	2.99889e-20 1.80214 	-2.95027 	1.21555e-20 1.78325 	-2.92153 	-5.51441e-21 1.76986 	-2.90256 	-2.11335e-20 1.75644 	-2.88358 	-3.67408e-20 1.7452 	-2.86328 	-1.81087e-20 1.73489 	-2.84248 	1.47244e-20 1.72459 	-2.82164 	4.76638e-20 1.71227 	-2.80444 	1.21624e-20 1.69992 	-2.78723 	-2.32887e-20 1.68821 	-2.76954 	-3.49048e-20 1.67813 	-2.75069 	1.29701e-20 1.66809 	-2.7319 	6.07138e-20 1.65476 	-2.7077 	1.97476e-19 1.64146 	-2.68352 	3.34177e-19 1.63054 	-2.65857 	2.96373e-19 1.62138 	-2.63314 	1.33618e-19 1.61247 	-2.6081 	-2.78268e-20 1.60467 	-2.59474 	-5.73795e-20 1.59686 	-2.58138 	-8.69401e-20 1.58987 	-2.56768 	-8.97844e-20 1.584 	-2.55352 	-5.62867e-20 1.57814 	-2.53936 	-2.27623e-20 1.56815 	-2.51485 	-2.46242e-20 1.55827 	-2.49043 	-2.6526e-20 1.55033 	-2.46588 	-1.93329e-20 1.54489 	-2.44119 	-5.0335e-22 1.53983 	-2.41738 	1.77453e-20 1.53318 	-2.40289 	2.97194e-20 1.52656 	-2.38843 	4.16889e-20 1.52125 	-2.37374 	4.57201e-20 1.5169 	-2.35891 	4.40965e-20 1.51258 	-2.34404 	4.2443e-20 1.50734 	-2.32431 	2.55663e-20 1.50224 	-2.30469 	8.66393e-21 1.4982 	-2.28527 	-3.13068e-21 1.49685 	-2.26623 	-1.11906e-21 1.49575 	-2.24807 	8.13427e-22 1.48879 	-2.22755 	7.62589e-20 1.48192 	-2.20713 	1.51932e-19 1.47766 	-2.18687 	1.25791e-19 1.47432 	-2.16677 	6.78086e-20 1.4711 	-2.14648 	8.99848e-21 1.4699 	-2.13594 	-2.33587e-20 1.46875 	-2.12546 	-5.56723e-20 1.46787 	-2.11513 	-8.19966e-20 1.4694 	-2.10625 	-3.64821e-20 1.47096 	-2.09768 	7.8849e-21 1.46383 	-2.06747 	4.60807e-21 1.45701 	-2.03754 	1.31347e-21 1.45624 	-2.01097 	-2.34563e-20 1.4568 	-1.98527 	-5.17323e-20 1.45941 	-1.9623 	-7.48603e-20 1.45894 	-1.96033 	-6.85141e-20 1.45847 	-1.95837 	-6.22227e-20 1.45842 	-1.95662 	-6.69729e-20 1.45837 	-1.95486 	-7.17207e-20 1.45832 	-1.9531 	-7.6479e-20 1.45644 	-1.92818 	-2.09491e-19 1.45494 	-1.90356 	-3.41769e-19 1.45417 	-1.87952 	-4.46531e-19 1.45842 	-1.8593 	-1.91168e-19 1.46278 	-1.84094 	4.70826e-20 1.46063 	-1.82603 	1.11181e-19 1.4586 	-1.81122 	1.75062e-19 1.45952 	-1.79854 	1.42351e-19 1.46057 	-1.78595 	1.0974e-19 1.46177 	-1.77313 	7.63105e-20 1.4627 	-1.76356 	6.7387e-20 1.4637 	-1.75406 	5.84855e-20 1.46479 	-1.74463 	4.96061e-20 1.4674 	-1.73646 	5.16779e-20 1.47007 	-1.72869 	5.41933e-20 1.46955 	-1.70543 	2.95035e-20 1.46939 	-1.68245 	4.75194e-21 1.4723 	-1.66189 	2.02293e-20 1.47691 	-1.64243 	4.53149e-20 1.48285 	-1.62532 	6.85455e-20 1.48283 	-1.62125 	6.74262e-20 1.48291 	-1.61725 	6.75905e-20 1.4835 	-1.61363 	7.51542e-20 1.48411 	-1.61002 	8.27159e-20 1.48473 	-1.60637 	9.0366e-20 1.48744 	-1.59063 	1.39733e-19 1.49041 	-1.5751 	1.88978e-19 1.49365 	-1.55976 	2.38098e-19 1.49883 	-1.54627 	1.68532e-19 1.50424 	-1.53409 	8.22658e-20 1.50589 	-1.5146 	1.55639e-19 1.50839 	-1.49583 	2.03748e-19 1.51301 	-1.47901 	1.6189e-19 1.51798 	-1.46244 	1.20563e-19 1.52369 	-1.44495 	7.67713e-20 1.52371 	-1.44488 	7.65388e-20 1.52373 	-1.44482 	7.63062e-20 1.52375 	-1.44476 	7.60737e-20 1.52378 	-1.4447 	7.63828e-20 1.52381 	-1.44465 	7.69292e-20 1.52821 	-1.42762 	1.26515e-19 1.53302 	-1.41087 	1.74558e-19 1.5382 	-1.39438 	2.22208e-19 1.54496 	-1.37967 	1.84238e-19 1.55206 	-1.36675 	1.1711e-19 1.55539 	-1.34914 	2.03136e-19 1.5596 	-1.33243 	2.39606e-19 1.56525 	-1.31728 	1.74863e-19 1.57123 	-1.30238 	1.10335e-19 1.57758 	-1.28884 	3.7827e-20 1.57781 	-1.28784 	3.75734e-20 1.57808 	-1.28689 	3.67369e-20 1.57841 	-1.286 	3.51654e-20 1.57873 	-1.28511 	3.35935e-20 1.57906 	-1.28422 	3.20125e-20 1.58427 	-1.27027 	-1.34804e-20 1.58979 	-1.25653 	-5.88943e-20 1.5956 	-1.24299 	-1.04226e-19 1.6023 	-1.23065 	-8.93429e-20 1.60936 	-1.21992 	-3.00632e-20 1.61381 	-1.2044 	-7.54479e-20 1.61857 	-1.18909 	-1.21246e-19 1.62464 	-1.17571 	-1.03833e-19 1.63194 	-1.16306 	-6.09349e-20 1.63997 	-1.15168 	3.29646e-22 1.64225 	-1.14484 	2.88175e-20 1.64487 	-1.13851 	2.83061e-20 1.64773 	-1.13255 	7.12791e-21 1.65066 	-1.12662 	-1.39995e-20 1.6538 	-1.12044 	-3.61293e-20 1.65744 	-1.11362 	-6.80379e-20 1.66116 	-1.10685 	-9.98348e-20 1.66498 	-1.10013 	-1.3152e-19 1.66902 	-1.09385 	-1.3108e-19 1.67326 	-1.08837 	-7.9881e-20 1.6784 	-1.07463 	-1.11918e-19 1.68443 	-1.06137 	-1.36108e-19 1.69176 	-1.04897 	-1.45549e-19 1.69994 	-1.03836 	-1.3522e-19 1.70803 	-1.02839 	-1.25231e-19 1.71381 	-1.01488 	-2.75532e-19 1.72007 	-1.00219 	-3.50359e-19 1.72695 	-0.990748 	-2.96287e-19 1.7341 	-0.979468 	-2.42723e-19 1.7424 	-0.969392 	-1.16068e-19 1.7445 	-0.96505 	-8.25058e-20 1.74675 	-0.961159 	-8.47233e-20 1.74907 	-0.957403 	-9.66024e-20 1.75141 	-0.953663 	-1.08434e-19 1.75388 	-0.949781 	-1.20724e-19 1.75874 	-0.942427 	-1.24332e-19 1.76372 	-0.93514 	-1.27913e-19 1.76882 	-0.92792 	-1.31466e-19 1.77406 	-0.920989 	-1.29657e-19 1.77939 	-0.915225 	-1.05275e-19 1.78544 	-0.903294 	-1.32885e-19 1.7925 	-0.891937 	-1.44777e-19 1.80043 	-0.881084 	-1.43549e-19 1.80875 	-0.872017 	-1.0297e-19 1.81703 	-0.863486 	-6.0945e-20 1.82364 	-0.851794 	-1.64903e-19 1.83052 	-0.840268 	-2.67005e-19 1.83768 	-0.830576 	-2.2569e-19 1.84589 	-0.82147 	-1.27943e-19 1.85458 	-0.813025 	4.39213e-23 1.86119 	-0.802467 	1.42214e-22 1.86797 	-0.793543 	1.07597e-22 1.87494 	-0.784761 	6.89566e-23 1.8821 	-0.77608 	2.98868e-23 1.89048 	-0.766309 	-1.5087e-23 1.89086 	-0.765894 	7.0821e-22 1.89123 	-0.765478 	1.43103e-21 1.89161 	-0.765063 	2.15338e-21 1.89199 	-0.764648 	2.87526e-21 1.89236 	-0.764315 	4.21468e-22 1.89984 	-0.754861 	-2.52712e-20 1.90763 	-0.745577 	-4.71406e-20 1.91565 	-0.736405 	-6.88317e-20 1.92388 	-0.727355 	-8.98857e-20 1.93179 	-0.720367 	-3.12017e-20 1.93867 	-0.710411 	-2.11312e-20 1.94624 	-0.700895 	-1.39325e-20 1.95462 	-0.691911 	-1.04192e-20 1.96279 	-0.684639 	-1.59874e-20 1.97093 	-0.677771 	-2.24525e-20 1.97824 	-0.668064 	5.39385e-20 1.98578 	-0.658459 	1.30442e-19 1.99321 	-0.650371 	1.32358e-19 2.00152 	-0.643425 	6.57219e-20 2.00986 	-0.636682 	1.63254e-22 2.01757 	-0.62723 	9.70975e-23 2.0251 	-0.618853 	-1.11779e-20 2.03252 	-0.611312 	-3.10235e-20 2.04012 	-0.603849 	-5.08454e-20 2.04859 	-0.597211 	-6.38752e-20 2.0555 	-0.589505 	-1.06452e-19 2.06203 	-0.582994 	-1.10008e-19 2.06869 	-0.57654 	-1.13624e-19 2.07549 	-0.570144 	-1.17299e-19 2.08346 	-0.562863 	-1.21587e-19 2.08422 	-0.562197 	-1.22771e-19 2.08499 	-0.561533 	-1.23953e-19 2.08575 	-0.560869 	-1.25136e-19 2.08652 	-0.560206 	-1.26318e-19 2.08722 	-0.559668 	-1.2231e-19 2.09468 	-0.552367 	-9.4332e-20 2.10237 	-0.545209 	-6.50888e-20 2.11024 	-0.538121 	-3.58834e-20 2.11828 	-0.531101 	-6.7161e-21 2.12555 	-0.52561 	1.79222e-22 2.1327 	-0.517844 	6.74857e-20 2.14053 	-0.510863 	8.6387e-20 2.14854 	-0.503971 	1.03525e-19 2.1562 	-0.497893 	8.43356e-20 2.16321 	-0.492975 	1.49086e-20 2.17059 	-0.485452 	-5.50309e-20 2.1782 	-0.478078 	-1.18723e-19 2.18627 	-0.471437 	-1.34999e-19 2.19319 	-0.466572 	-6.72693e-20 2.20017 	-0.461791 	-7.25094e-23 2.20775 	-0.454511 	-3.96076e-23 2.21551 	-0.447289 	-6.87803e-24 2.22263 	-0.441425 	0 2.22947 	-0.436707 	0 2.23638 	-0.432064 	0 2.24413 	-0.425025 	0 2.2518 	-0.418307 	0 2.2583 	-0.413072 	0 2.265 	-0.408296 	-1.01521e-20 2.2718 	-0.40379 	-2.51737e-20 2.27969 	-0.396992 	-6.23815e-21 2.2866 	-0.391354 	-6.35078e-21 2.2931 	-0.386304 	-1.58167e-20 2.29972 	-0.381318 	-2.67453e-20 2.30639 	-0.37695 	-6.64864e-20 2.3141 	-0.370636 	-2.84729e-20 2.32045 	-0.365735 	-3.02623e-20 2.32692 	-0.360867 	-3.20236e-20 2.33351 	-0.356032 	-3.37569e-20 2.3401 	-0.351515 	-4.64709e-20 2.34635 	-0.346651 	-3.69112e-20 2.35196 	-0.342434 	-3.83624e-20 2.35766 	-0.338242 	-3.97921e-20 2.36346 	-0.334073 	-4.12005e-20 2.37031 	-0.329251 	-4.28145e-20 2.37083 	-0.328897 	-4.26967e-20 2.37135 	-0.328543 	-4.2579e-20 2.37187 	-0.328189 	-4.24615e-20 2.37239 	-0.327835 	-4.23441e-20 2.37285 	-0.327535 	-4.2521e-20 2.37901 	-0.322945 	-4.92052e-20 2.38528 	-0.318409 	-5.37544e-20 2.39165 	-0.313901 	-5.82267e-20 2.39813 	-0.30942 	-6.26224e-20 2.40377 	-0.305692 	-3.8967e-20 2.4101 	-0.300977 	-7.51587e-20 2.41626 	-0.296616 	-8.72919e-20 2.42253 	-0.292281 	-9.93663e-20 2.4289 	-0.287972 	-1.11382e-19 2.43354 	-0.284984 	-7.1307e-20 2.44012 	-0.2802 	-1.18581e-19 2.44616 	-0.276013 	-1.21108e-19 2.4523 	-0.271849 	-1.23588e-19 2.45819 	-0.267944 	-1.19001e-19 2.46216 	-0.26538 	-7.53461e-20 2.46877 	-0.260763 	-1.17874e-19 2.47494 	-0.256558 	-1.2801e-19 2.48094 	-0.252562 	-1.22405e-19 2.48588 	-0.2493 	-9.48e-20 2.48962 	-0.246841 	-4.3199e-20 2.4962 	-0.242428 	4.31574e-20 2.50259 	-0.238208 	1.0385e-19 2.50843 	-0.234378 	1.09347e-19 2.51241 	-0.231689 	5.0368e-20 2.5159 	-0.229334 	-2.6697e-20 2.52244 	-0.225119 	-1.75936e-20 2.52908 	-0.220924 	-8.50014e-21 2.5346 	-0.217339 	8.66907e-21 2.53778 	-0.215072 	2.59572e-20 2.54101 	-0.212817 	4.32203e-20 2.54749 	-0.208799 	-4.33232e-20 2.55407 	-0.204797 	-1.29879e-19 2.55906 	-0.201575 	-1.41244e-19 2.56198 	-0.199408 	-7.10834e-20 2.56495 	-0.197252 	-1.02115e-21 2.57136 	-0.193424 	-1.07534e-22 2.57786 	-0.189612 	7.85281e-22 2.58237 	-0.186726 	-1.56708e-20 2.58502 	-0.184657 	-4.94171e-20 2.58773 	-0.182598 	-8.31384e-20 2.59404 	-0.178958 	-4.7683e-20 2.60046 	-0.175331 	-1.22434e-20 2.60453 	-0.172754 	-8.54655e-21 2.60692 	-0.170781 	-2.593e-20 2.60936 	-0.168817 	-4.32977e-20 2.61557 	-0.165359 	-2.59873e-20 2.62187 	-0.161915 	-8.70973e-21 2.62548 	-0.159637 	-9.45418e-21 2.62768 	-0.157741 	-2.60534e-20 2.62985 	-0.155869 	-4.33786e-20 2.63595 	-0.152589 	-1.64885e-19 2.6416 	-0.149534 	-2.61791e-19 2.64504 	-0.147375 	-2.571e-19 2.64731 	-0.145496 	-1.64746e-19 2.64921 	-0.143715 	-4.33592e-20 2.65521 	-0.140608 	-2.59813e-20 2.66021 	-0.1379 	-8.62104e-21 2.66349 	-0.135856 	8.70882e-21 2.66584 	-0.13401 	2.13077e-20 2.66748 	-0.132317 	3.02497e-20 2.67335 	-0.129378 	9.13176e-20 2.67774 	-0.126981 	1.18691e-19 2.68086 	-0.125048 	1.17017e-19 2.6833 	-0.123246 	9.21095e-20 2.68467 	-0.121639 	3.16737e-20 2.69041 	-0.118864 	2.32318e-20 2.69422 	-0.116741 	1.48061e-20 2.69716 	-0.114917 	6.38552e-21 2.6997 	-0.113168 	0 2.70082 	-0.111645 	0 2.70642 	-0.109029 	0 2.70967 	-0.10715 	1.47193e-20 2.71245 	-0.105431 	3.25496e-20 2.71507 	-0.103743 	5.03647e-20 2.71594 	-0.102302 	6.81066e-20 2.72142 	-0.0998388 	1.90103e-19 2.72413 	-0.0981762 	1.93619e-19 2.72675 	-0.0965578 	1.91092e-19 2.72941 	-0.0949425 	1.88614e-19 2.73008 	-0.0935751 	7.02134e-20 2.73522 	-0.0913121 	5.31994e-20 2.73764 	-0.0897883 	3.62385e-20 2.74009 	-0.0882674 	1.92695e-20 2.74259 	-0.0867492 	2.29233e-21 2.74327 	-0.0854331 	1.46991e-20 2.74796 	-0.0833869 	-4.34241e-24 2.75021 	-0.0819574 	-2.98883e-23 2.75251 	-0.0805303 	-5.54239e-23 2.75485 	-0.0791057 	-8.09494e-23 2.75553 	-0.0778452 	6.38945e-21 2.7598 	-0.075994 	-5.08091e-20 2.7619 	-0.0746552 	-4.95099e-20 2.76404 	-0.0733185 	-4.82382e-20 2.76622 	-0.0719838 	-4.69939e-20 2.76691 	-0.070782 	-5.64403e-21 2.77078 	-0.0691064 	8.55956e-23 2.77274 	-0.0678546 	6.04895e-23 2.77473 	-0.0666046 	3.53736e-23 2.77676 	-0.0653564 	1.02481e-23 2.77744 	-0.0642154 	0 2.78095 	-0.0626977 	1.11901e-20 2.78276 	-0.0615294 	3.75133e-20 2.78461 	-0.0603626 	6.38279e-20 2.78649 	-0.0591974 	9.01337e-20 2.78716 	-0.0581183 	1.07496e-19 2.79033 	-0.0567429 	1.73099e-19 2.792 	-0.0556545 	1.7202e-19 2.79371 	-0.0545674 	1.7097e-19 2.79545 	-0.0534816 	1.69947e-19 2.79611 	-0.0524649 	1.02486e-19 2.79896 	-0.0512177 	8.75806e-20 2.80051 	-0.0502057 	5.31472e-20 2.80208 	-0.0491948 	1.87084e-20 2.80368 	-0.048185 	-1.57359e-20 2.80432 	-0.0472305 	-4.669e-20 2.80689 	-0.046099 	-9.021e-20 2.80831 	-0.0451599 	-8.9002e-20 2.80975 	-0.0442217 	-8.7828e-20 2.81122 	-0.0432844 	-8.66876e-20 2.81183 	-0.0423914 	-3.70501e-20 2.81415 	-0.0413645 	-4.95351e-20 2.81544 	-0.0404948 	-3.17145e-20 2.81676 	-0.0396259 	-1.39118e-20 2.81811 	-0.0387578 	3.87314e-21 2.81868 	-0.037925 	4.31038e-20 2.82077 	-0.0369927 	4.98624e-20 2.82195 	-0.0361891 	6.73333e-20 2.82315 	-0.0353861 	8.4796e-20 2.82438 	-0.0345837 	1.0225e-19 2.82492 	-0.0338097 	1.22065e-19 2.82679 	-0.0329632 	1.46227e-19 2.82786 	-0.0322222 	1.37005e-19 2.82896 	-0.0314818 	1.27804e-19 2.83007 	-0.0307419 	1.18623e-19 2.83056 	-0.0300249 	8.16884e-20 2.83225 	-0.0292562 	5.80647e-20 2.83322 	-0.0285746 	3.23165e-20 2.83421 	-0.0278935 	6.5666e-21 2.83522 	-0.0272128 	-1.91852e-20 2.83566 	-0.0265507 	-4.10463e-20 2.83718 	-0.0258528 	-5.61645e-20 2.83805 	-0.0252274 	-3.83906e-20 2.83894 	-0.0246024 	-2.06428e-20 2.83986 	-0.0239777 	-2.92109e-21 2.84024 	-0.0233682 	4.84828e-20 2.84161 	-0.022735 	1.0232e-19 2.8424 	-0.0221626 	1.10001e-19 2.8432 	-0.0215905 	1.17725e-19 2.84402 	-0.0210187 	1.25493e-19 2.84433 	-0.0204595 	8.86216e-20 2.84559 	-0.0198853 	7.17986e-20 2.84628 	-0.0193628 	6.32549e-20 2.847 	-0.0188406 	5.47071e-20 2.84773 	-0.0183186 	4.61551e-20 2.84798 	-0.0178073 	3.76058e-20 2.84913 	-0.0172871 	1.44068e-20 2.84975 	-0.0168116 	1.47543e-20 2.85038 	-0.0163362 	1.50792e-20 2.85103 	-0.0158611 	1.53816e-20 2.85122 	-0.015395 	4.14742e-20 2.85227 	-0.0149243 	3.98573e-20 2.85282 	-0.01