# vtk DataFile Version 2.0
track0
ASCII
DATASET POLYDATA
POINTS 12278 float
-0.0205 0.001 1e-05
-0.02052 0.000999216 1e-05
-0.02054 0.000998592 1e-05
-0.02056 0.000998126 1e-05
-0.02058 0.000997818 1e-05
-0.0206 0.000997665 1e-05
-0.0205 0.00367778 1e-05
-0.02052 0.00367703 1e-05
-0.02054 0.00367643 1e-05
-0.02056 0.00367599 1e-05
-0.02058 0.00367569 1e-05
-0.0206 0.00367554 1e-05
-0.0205 0.00635556 1e-05
-0.02052 0.00635527 1e-05
-0.02054 0.00635505 1e-05
-0.02056 0.00635488 1e-05
-0.02058 0.00635476 1e-05
-0.0206 0.00635471 1e-05
-0.0205 0.00903333 1e-05
-0.02052 0.00903311 1e-05
-0.02054 0.00903293 1e-05
-0.02056 0.0090328 1e-05
-0.02058 0.00903271 1e-05
-0.0206 0.00903266 1e-05
-0.0205 0.0117111 1e-05
-0.02052 0.0117111 1e-05
-0.02054 0.011711 1e-05
-0.02056 0.011711 1e-05
-0.02058 0.011711 1e-05
-0.0206 0.011711 1e-05
-0.0205 0.0143889 1e-05
-0.02052 0.014389 1e-05
-0.02054 0.014389 1e-05
-0.02056 0.0143891 1e-05
-0.02058 0.0143891 1e-05
-0.0206 0.0143891 1e-05
-0.0205 0.0170667 1e-05
-0.02052 0.017067 1e-05
-0.02054 0.0170672 1e-05
-0.02056 0.0170674 1e-05
-0.02058 0.0170675 1e-05
-0.0206 0.0170676 1e-05
-0.0205 0.0197444 1e-05
-0.02052 0.019745 1e-05
-0.02054 0.0197454 1e-05
-0.02056 0.0197457 1e-05
-0.02058 0.0197459 1e-05
-0.0206 0.019746 1e-05
-0.0205 0.0224222 1e-05
-0.02052 0.022423 1e-05
-0.02054 0.0224236 1e-05
-0.02056 0.0224241 1e-05
-0.02058 0.0224244 1e-05
-0.0206 0.0224245 1e-05
-0.0205 0.0251 1e-05
-0.02052 0.0251003 1e-05
-0.02054 0.0251005 1e-05
-0.02056 0.0251007 1e-05
-0.02058 0.0251008 1e-05
-0.0206 0.0251008 1e-05
-0.0205 0.001 1e-05
-0.0203632 0.00100536 1e-05
-0.0202266 0.00101331 1e-05
-0.0200901 0.00102296 1e-05
-0.0200427 0.00102682 1e-05
-0.0198376 0.00104418 1e-05
-0.0196338 0.00107322 1e-05
-0.0194327 0.00111734 1e-05
-0.0192368 0.00118024 1e-05
-0.0190172 0.00124951 1e-05
-0.0189002 0.00128348 1e-05
-0.0187827 0.00131598 1e-05
-0.0186649 0.001347 1e-05
-0.0185469 0.001377 1e-05
-0.0183807 0.00141936 1e-05
-0.0182041 0.00146458 1e-05
-0.0180267 0.00150692 1e-05
-0.0178487 0.0015464 1e-05
-0.0176703 0.00158389 1e-05
-0.0174976 0.00161991 1e-05
-0.0172846 0.00166394 1e-05
-0.0170715 0.00170741 1e-05
-0.0168583 0.00175029 1e-05
-0.0166449 0.00179219 1e-05
-0.0163945 0.00184007 1e-05
-0.0163234 0.00185324 1e-05
-0.0162522 0.00186629 1e-05
-0.016181 0.00187921 1e-05
-0.0161097 0.00189201 1e-05
-0.0160387 0.0019046 1e-05
-0.0157586 0.0019535 1e-05
-0.0154779 0.00199931 1e-05
-0.0151968 0.00204225 1e-05
-0.0149154 0.00208283 1e-05
-0.0146381 0.00212134 1e-05
-0.0143838 0.00215527 1e-05
-0.0141293 0.00218766 1e-05
-0.0138747 0.00221855 1e-05
-0.0136198 0.00224797 1e-05
-0.0132934 0.00228369 1e-05
-0.0132791 0.00228515 1e-05
-0.0132648 0.0022866 1e-05
-0.0132504 0.00228805 1e-05
-0.0132361 0.0022895 1e-05
-0.0132214 0.00229098 1e-05
-0.0129776 0.00231543 1e-05
-0.0127337 0.00233865 1e-05
-0.0124897 0.00236061 1e-05
-0.0122456 0.00238129 1e-05
-0.0120025 0.00240058 1e-05
-0.0117547 0.00241909 1e-05
-0.0115067 0.00243627 1e-05
-0.0112587 0.00245231 1e-05
-0.0110106 0.00246734 1e-05
-0.0107632 0.00248136 1e-05
-0.0105252 0.00249391 1e-05
-0.0102872 0.00250547 1e-05
-0.0100491 0.00251602 1e-05
-0.00981105 0.00252575 1e-05
-0.00957337 0.00253471 1e-05
-0.00934491 0.00254261 1e-05
-0.00911643 0.00254974 1e-05
-0.00888792 0.0025561 1e-05
-0.0086594 0.00256171 1e-05
-0.00843108 0.00256668 1e-05
-0.00821175 0.00257084 1e-05
-0.00799241 0.00257439 1e-05
-0.00777306 0.00257731 1e-05
-0.0075537 0.00257952 1e-05
-0.00733443 0.00258114 1e-05
-0.00712387 0.00258212 1e-05
-0.0069133 0.00258255 1e-05
-0.00670273 0.00258243 1e-05
-0.00649216 0.00258162 1e-05
-0.0062816 0.00258017 1e-05
-0.00607944 0.00257819 1e-05
-0.0058773 0.00257565 1e-05
-0.00567516 0.00257256 1e-05
-0.00547303 0.00256874 1e-05
-0.00527083 0.00256419 1e-05
-0.00507675 0.00255912 1e-05
-0.00488269 0.00255342 1e-05
-0.00468865 0.0025471 1e-05
-0.00449464 0.00253997 1e-05
-0.00430044 0.0025319 1e-05
-0.00411412 0.00252329 1e-05
-0.00392784 0.00251388 1e-05
-0.00374159 0.00250368 1e-05
-0.0035554 0.00249254 1e-05
-0.00336883 0.00248015 1e-05
-0.00318995 0.00246711 1e-05
-0.00301115 0.00245299 1e-05
-0.00283245 0.00243774 1e-05
-0.00265386 0.0024212 1e-05
-0.00247443 0.00240314 1e-05
-0.0023027 0.00238425 1e-05
-0.00213114 0.00236383 1e-05
-0.00195982 0.00234153 1e-05
-0.00178875 0.00231737 1e-05
-0.00161577 0.00229105 1e-05
-0.00161569 0.00229103 1e-05
-0.00161561 0.00229102 1e-05
-0.00161552 0.002291 1e-05
-0.00161544 0.00229099 1e-05
-0.00161535 0.00229098 1e-05
-0.00145057 0.00226407 1e-05
-0.00128618 0.00223481 1e-05
-0.00112222 0.00220325 1e-05
-0.000958708 0.00216946 1e-05
-0.000791418 0.00213235 1e-05
-0.000633135 0.00209424 1e-05
-0.000475556 0.00205331 1e-05
-0.000318719 0.00200962 1e-05
-0.000162835 0.00196265 1e-05
0 0.0019095 1e-05
3.73303e-05 0.0018963 1e-05
7.45607e-05 0.00188283 1e-05
0.000111693 0.00186908 1e-05
0.000148727 0.00185508 1e-05
0.00017903 0.00184338 1e-05
0.000248902 0.00181593 1e-05
0.000318362 0.00178747 1e-05
0.000387397 0.00175799 1e-05
0.000455992 0.00172749 1e-05
0.000528387 0.00169411 1e-05
0.000634886 0.00164313 1e-05
0.000740278 0.0015899 1e-05
0.00084451 0.00153443 1e-05
0.00094762 0.0014769 1e-05
0.00101983 0.00143468 1e-05
0.00102804 0.00142972 1e-05
0.00103624 0.00142475 1e-05
0.00104443 0.00141975 1e-05
0.00105261 0.00141474 1e-05
0.00106088 0.00140967 1e-05
0.00116821 0.00134348 1e-05
0.00127404 0.00127492 1e-05
0.00137827 0.00120396 1e-05
0.00148099 0.00113083 1e-05
0.00159663 0.00104511 1e-05
0.00159681 0.00104497 1e-05
0.00159698 0.00104483 1e-05
0.00159716 0.00104469 1e-05
0.00159734 0.00104455 1e-05
0.00159752 0.00104442 1e-05
0.00169217 0.000970857 1e-05
0.00178541 0.000895533 1e-05
0.00187718 0.00081841 1e-05
0.00196753 0.000739634 1e-05
0.00203792 0.000676366 1e-05
0.002058 0.000657861 1e-05
0.002078 0.000639266 1e-05
0.00209791 0.000620581 1e-05
0.00211777 0.000601834 1e-05
0.00213833 0.000582301 1e-05
0.00219144 0.0005315 1e-05
0.00224406 0.000480182 1e-05
0.00229616 0.000428339 1e-05
0.00234773 0.000375966 1e-05
0.00239401 0.000328255 1e-05
0.00245188 0.000267774 1e-05
0.00250911 0.000206692 1e-05
0.00256571 0.000145028 1e-05
0.0026218 8.28965e-05 1e-05
0.00268334 1.35473e-05 1e-05
0.00268569 1.08378e-05 1e-05
0.00268805 8.12738e-06 1e-05
0.00269041 5.41593e-06 1e-05
0.00269276 2.70347e-06 1e-05
0.0026951 0 1e-05
0.002759 -7.37367e-05 1e-05
0.00282228 -0.000148005 1e-05
0.00288492 -0.000222813 1e-05
0.00294689 -0.000298172 1e-05
0.00300396 -0.000368654 1e-05
0.00304969 -0.000425959 1e-05
0.0030951 -0.000483509 1e-05
0.00314021 -0.000541302 1e-05
0.00318507 -0.00059929 1e-05
0.00323259 -0.000661295 1e-05
0.00325061 -0.000685055 1e-05
0.00326859 -0.000708854 1e-05
0.00328651 -0.000732693 1e-05
0.00330438 -0.000756572 1e-05
0.00332191 -0.000780089 1e-05
0.00339005 -0.000871876 1e-05
0.00345759 -0.000964106 1e-05
0.00352451 -0.00105679 1e-05
0.00359088 -0.00114986 1e-05
0.00365375 -0.00123896 1e-05
0.00368022 -0.00127688 1e-05
0.00370661 -0.00131485 1e-05
0.00373294 -0.00135287 1e-05
0.0037592 -0.00139093 1e-05
0.00378611 -0.00143003 1e-05
0.00383007 -0.00149412 1e-05
0.00387382 -0.00155835 1e-05
0.00391735 -0.00162273 1e-05
0.00396065 -0.00168727 1e-05
0.00400279 -0.00175043 1e-05
0.00407102 -0.0018533 1e-05
0.00413883 -0.00195643 1e-05
0.00420621 -0.00205985 1e-05
0.00427331 -0.00216345 1e-05
0.00434393 -0.00227315 1e-05
0.00434996 -0.00228258 1e-05
0.00435598 -0.00229202 1e-05
0.004362 -0.00230145 1e-05
0.00436802 -0.00231089 1e-05
0.00437402 -0.0023203 1e-05
0.00445487 -0.00244725 1e-05
0.00453527 -0.00257448 1e-05
0.00461527 -0.00270197 1e-05
0.00469491 -0.00282968 1e-05
0.00477279 -0.00295497 1e-05
0.00479945 -0.00299802 1e-05
0.00482608 -0.00304108 1e-05
0.00485269 -0.00308416 1e-05
0.00487929 -0.00312724 1e-05
0.00490609 -0.00317065 1e-05
0.00496671 -0.00326884 1e-05
0.00502718 -0.00336713 1e-05
0.00508751 -0.00346551 1e-05
0.00514769 -0.00356397 1e-05
0.00520733 -0.00366161 1e-05
0.00526039 -0.00374853 1e-05
0.00531341 -0.00383548 1e-05
0.00536639 -0.00392246 1e-05
0.00541939 -0.00400942 1e-05
0.00547262 -0.00409663 1e-05
0.00551559 -0.00416693 1e-05
0.00555852 -0.00423725 1e-05
0.00560142 -0.00430759 1e-05
0.0056443 -0.00437793 1e-05
0.00568711 -0.00444811 1e-05
0.0057584 -0.00456486 1e-05
0.00582974 -0.00468159 1e-05
0.00590112 -0.00479828 1e-05
0.00597264 -0.0049149 1e-05
0.00604356 -0.00503007 1e-05
0.00607981 -0.00508871 1e-05
0.00611607 -0.00514734 1e-05
0.00615234 -0.00520597 1e-05
0.00618863 -0.00526458 1e-05
0.00622503 -0.00532326 1e-05
0.00630381 -0.00545002 1e-05
0.00638278 -0.00557667 1e-05
0.00646195 -0.00570319 1e-05
0.00654139 -0.00582955 1e-05
0.00661893 -0.00595208 1e-05
0.00666283 -0.006021 1e-05
0.00670679 -0.00608989 1e-05
0.0067508 -0.00615875 1e-05
0.00679489 -0.00622755 1e-05
0.00683937 -0.00629671 1e-05
0.00691125 -0.00640811 1e-05
0.00698338 -0.00651934 1e-05
0.00705578 -0.00663041 1e-05
0.00712846 -0.00674128 1e-05
0.00719878 -0.00684774 1e-05
0.00726948 -0.006954 1e-05
0.0073404 -0.00706011 1e-05
0.00741154 -0.00716607 1e-05
0.007483 -0.00727182 1e-05
0.00755599 -0.00737909 1e-05
0.00760142 -0.00744538 1e-05
0.00764697 -0.00751158 1e-05
0.00769266 -0.00757769 1e-05
0.00773847 -0.0076437 1e-05
0.00778313 -0.00770772 1e-05
0.00790091 -0.00787568 1e-05
0.00801946 -0.00804311 1e-05
0.00813878 -0.00820997 1e-05
0.0082591 -0.00837613 1e-05
0.00837203 -0.00853003 1e-05
0.00837975 -0.0085404 1e-05
0.00838747 -0.00855077 1e-05
0.00839519 -0.00856114 1e-05
0.00840291 -0.0085715 1e-05
0.00841066 -0.00858189 1e-05
0.00852163 -0.00873051 1e-05
0.00863342 -0.00887851 1e-05
0.00874606 -0.00902588 1e-05
0.00885956 -0.00917258 1e-05
0.00896551 -0.00930765 1e-05
0.00903014 -0.00938899 1e-05
0.00909503 -0.00947011 1e-05
0.00916019 -0.00955102 1e-05
0.00922565 -0.00963169 1e-05
0.00929328 -0.00971439 1e-05
0.00934734 -0.00977997 1e-05
0.0094016 -0.00984539 1e-05
0.00945606 -0.00991064 1e-05
0.00951071 -0.00997574 1e-05
0.0095636 -0.0100383 1e-05
[...]
POINT_DATA 12278
 FIELD attributes 2
p 1 12278 float
177013 177095 177167 177231 177285 177329
108946 108964 108981 108995 109007 109017
87753 87762.5 87771.9 87781 87790 87798.4
79935.2 79941.5 79947.7 79953.9 79959.9 79965.9
77144.3 77153.5 77162.8 77172 77181.2 77190.4
77561.7 77575.3 77588.8 77602.4 77616 77629.5
81094.9 81107.3 81119.5 81131.6 81143.6 81155.3
90921.3 90941.1 90960.1 90978.4 90996 91012.9
117353 117386 117416 117445 117471 117494
215472 215282 215090 214896 214700 214502
177013 173408 169081 164502 162836 158904 155522 152871 144706 134664 129222 123793 119855 119244 118392 112347 106447 102326 101430 100563 99581.3 98599.1 97172.4 95704.1 93988.5 93622 93255 92887.5 92406.5 91908.8 89989.2 88185.3 86671.3 85884 85107.2 84421.4 83756.7 83106.9 82455.1 81621.2 81586.2 81557.3 81529.3 81501.3 81472.4 80939.7 80407.4 79875.6 79344.3 78919.2 78493 78083.8 77686.1 77310.5 76944.5 76594.6 76244.3 75920.6 75619.1 75318 75028.6 74738.9 74460.4 74197.6 73935 73681.3 73427.6 73177.5 72941.4 72705.3 72476.4 72247.5 72017 71797.5 71578.3 71364.7 71151.1 70932.5 70721.7 70511 70303.8 70096.9 69884 69671.5 69459.4 69247.5 69036 68820.8 68592.8 68365.2 68132.3 67896.6 67652.5 67399.9 67134 66853.7 66540 66227.8 65917.2 65604.2 65604 65603.8 65603.5 65603.3 65603.1 65211.8 64826.2 64446.3 64048.2 63568 63052.5 62542.8 61841.7 61068.6 60255.4 60007.2 59769.4 59542.4 59316 59130.7 58573.7 58014.5 57453.2 56979.8 56511.4 55906.8 55304.1 54764.3 54223.2 53839 53780.8 53722.5 53667.1 53619.4 53571.1 53017.9 52457.6 51939.6 51467.2 50922.1 50921 50919.8 50918.8 50918 50917.1 50490 50055.5 49653.1 49317.6 49048.7 48949.3 48849.6 48778.7 48709 48636.3 48447.9 48257.1 48064.6 47920.3 47788.2 47615.4 47446.7 47307 47165.2 47005.9 46999.5 46993.1 46986.8 46981 46975.5 46870.2 46757.9 46643.1 46529.9 46422.9 46387.3 46350.6 46311 46270.6 46226.8 46206.7 46186.4 46166 46144.9 46123.8 46098.5 46071.7 46034.6 45992.3 45950.8 45953.2 45955.4 45954.7 45953.8 45952.9 45941.6 45929.9 45917.8 45902.7 45887.5 45897.3 45906.5 45911 45915 45918.7 45917.9 45917 45916.2 45915.1 45914 45927.6 45941.2 45953.9 45964.6 45974.9 45985.2 45995.5 46005.3 46015 46024.8 46036.3 46047.7 46058.9 46070 46080.9 46099.4 46117.8 46136.3 46154.8 46173.4 46182 46190.6 46199.2 46208.4 46217.5 46240.2 46262.9 46286.3 46310.2 46334 46341.4 46348.8 46356.5 46364.8 46373.1 46396.3 46419.6 46443.8 46469 46493.8 46502.7 46511.6 46521.3 46531.5 46541.8 46561.5 46581.3 46601.7 46623.6 46644.8 46658.7 46672.6 46688.3 46704.6 46721.4 46732.9 46744.5 46756.2 46768.8 46781.2 46803.2 46825.3 46850.8 46877 46902.9 46904 46905.2 46906.5 46907.9 46909.3 46930.5 46951.9 46973.7 46997.6 47019.9 47029.5 47039.1 47050.1 47061.2 47072.6 47082.3 47092 47101.8 47112.2 47122.3 47139.5 47156.9 47175.8 47195.7 47215.1 47217.7 47220.3 47223.2 47226.2 47229.2 47243.5 47258 47272.5 47288.1 47303 47316.7 47331 47346.5 47362.1 47379 47379 47379.1 47379.2 47379.2 47379.3 47393.9 47408.6 47423.5 47439.4 47454.6 47466.6 47479.2 47492.8 47506.5 47519.7 47520.3 47520.9 47521.6 47522.3 47523 47534.8 47546.6 47558.5 47571.1 47583.6 47593.9 47604.2 47615.9 47628.1 47640.1 47644.1 47648.5 47653.2 47657.9 47662.8 47668.6 47674.5 47680.4 47686.5 47692.9 47701.7 47710.8 47720.5 47731.4 47741.9 47749.5 47757.6 47766.5 47775.4 47784.6 47786.7 47789.2 47791.7 47794.3 47796.9 47802.3 47807.7 47813 47818.5 47824.6 47830.8 47837.4 47844.3 47852.3 47860.2 47865.2 47870.3 47876.5 47883.2 47889.9 47893.5 47898.2 47902.9 47907.5 47912.8 47913.1 47913.3 47913.6 47913.8 47914.1 47918.2 47922.4 47926.5 47930.6 47935.7 47938 47940.6 47943.5 47947.4 47951.3 47952.5 47953.6 47955.5 47958.3 47960.9 47960.9 47961.4 47962.3 47963.1 47964.6 47963.8 47963.5 47963.2 47962.9 47962.5 47962.5 47962.5 47962.5 47962.5 47962.5 47961.1 47959.8 47958.5 47957.1 47956.3 47953.1 47950.6 47948 47945.7 47943.9 47939.6 47935.3 47931.6 47928.5 47925.5 47920 47914.4 47909.5 47905.2 47900.9 47894.3 47887.7 47881.7 47876 47870.5 47862.8 47855.4 47848.1 47840.9 47834.2 47825.5 47817.1 47808.8 47800.4 47792.3 47783.7 47775.3 47766.8 47758.3 47748.4 47747.7 47747 47746.3 47745.5 47744.8 47734.4 47724 47713.5 47703 47692.7 47681 47669.5 47658 47646.5 47635.2 47622.2 47609.7 47597.2 47584.8 47572.5 47558.5 47544.9 47531.4 47518.1 47504.8 47489.9 47475.2 47460.8 47446.5 47432.3 47416.5 47400.8 47385.5 47370.3 47355.1 47338.6 47322 47305.8 47289.7 47273.6 47256.3 47239 47221.8 47204.9 47187.9 47169.8 47151.8 47133.7 47116 47098.3 47079.5 47060.6 47041.8 47023.3 47004.8 46985.3 46965.8 46946.2 46926.9 46907.7 46887.6 46867.4 46847.2 46827.2 46807.3 46786.5 46765.8 46744.9 46724.2 46703.6 46682.3 46660.9 46639.5 46618.1 46596.9 46575.1 46553.1 46531.1 46509.2 46487.4 46465.1 46442.6 46420 46397.5 46375.2 46352.4 46329.4 46306.3 46283.3 46260.5 46237.2 46213.7 46190.2 46166.8 46143.4 46119.6 46095.7 46071.8 46047.9 46024.1 45999.9 45975.6 45951.3 45927 45902.8 45878.2 45853.5 45828.8 45804.1 45779.4 45754.5 45729.4 45704.3 45679.3 45654.3 45629 45603.6 45578.2 45552.8 45527.4 45501.8 45476.1 45450.3 45424.6 45398.9 45373 45347 45320.9 45294.9 45268.9 45242.7 45216.4 45190.1 45163.8 45137.5 45111 45084.4 45057.9 45031.3 45004.7 44978 44951.2 44924.3 44897.5 44870.7 44843.7 44816.6 44789.6 44762.5 44735.5 44708.2 44680.9 44653.6 44626.3 44599.1 44571.6 44544.1 44516.6 44489.1 44461.6 44433.9 44406.2 44378.5 44350.8 44323 44295.2 44267.2 44239.3 44211.4 44183.5 44155.4 44127.3 44099.2 44071.1 44043 44014.7 43986.4 43958.1 43929.8 43901.5 43873.1 43844.6 43816.1 43787.7 43759.2 43730.6 43701.9 43673.2 43644.6 43615.9 43587.1 43558.3 43529.4 43500.6 43471.8 43442.8 43413.8 43384.8 43355.8 43326.8 43297.6 43268.4 43239.3 43210.1 43180.9 43151.6 43122.2 43092.9 43063.5 43034.2 43004.7 42975.2 42945.6 42916.1 42886.6 42856.9 42827.2 42797.5 42767.9 42738.1 42708.3 42678.5 42648.6 42618.7 42588.8 42558.8 42528.8 42498.8 42468.7 42438.7 42408.5 42378.3 42348.1 42317.9 42287.6 42257.3 42226.9 42196.5 42166.1 42135.7 42105.2 42074.6 42044.1 42013.5 41982.9 41952.2 41921.4 41890.7 41859.9 41829.2 41798.3 41767.3 41736.4 41705.5 41674.5 41643.4 41612.3 41581.2 41550 41518.9 41487.6 41456.3 41425 41393.7 41362.3 41330.9 41299.3 41267.8 41236.3 41204.8 41173.1 41141.4 41109.7 41078 41046.2 41014.4 40982.5 40950.6 40918.6 40886.7 40854.6 40822.5 40790.4 40758.3 40726.1 40693.8 40661.5 40629.2 40596.8 40564.5 40532 40499.4 40466.9 40434.3 40401.7 40369 40336.3 40303.5 40270.8 40237.9 40205 40172 40139.1 40106.1 40073 40039.9 40006.7 39973.5 39940.2 39907 39873.6 39840.2 39806.7 39773.3 39739.8 39706.2 39672.5 39638.8 39605.1 39571.4 39537.6 39503.6 39469.7 39435.8 39401.8 39367.8 39333.6 39299.4 39265.3 39231.1 39196.7 39162.3 39127.9 39093.5 39059.1 39024.5 38989.8 38955.2 38920.5 38885.8 38851 38816.1 38781.2 38746.3 38711.3 38676.2 38641.1 38605.9 38570.8 38535.5 38500.2 38464.8 38429.3 38393.9 38358.4 38322.8 38287.1 38251.5 38215.8 38180 38144.1 38108.2 38072.2 38036.3 38000.3 37964.1 37927.9 37891.7 37855.5 37819.2 37782.8 37746.3 37709.8 37673.3 37636.7 37600 37563.3 37526.5 37489.7 37452.9 37415.9 37378.9 37341.8 37304.8 37267.6 37230.4 37193.1 37155.7 37118.4 37081 37043.4 37005.8 36968.2 36930.6 36892.9 36855.1 36817.2 36779.3 36741.4 36703.4 36665.3 36627.1 36588.9 36550.7 36512.4 36474 36435.5 36397 36358.5 36319.9 36281.2 36242.5 36203.7 36164.9 36126 36087 36047.9 36008.9 35969.7 35930.6 35891.3 35851.9 35812.5 35773.1 35733.6 35694 35654.4 35614.7 35574.9 35535.2 35495.2 35455.3 35415.3 35375.2 35335.1 35294.9 35254.7 35214.3 35174 35133.6 35093 35052.5 35011.8 34971.2 34930.5 34889.6 34848.7 34807.8 34766.8 34725.8 34684.6 34643.4 34602.1 34560.8 34519.5 34478 34436.4 34394.9 34353.2 34311.6 34269.7 34227.9 34186 34144 34102 34059.9 34017.7 33975.5 33933.2 33890.9 33848.4 33805.9 33763.4 33720.7 33678.1 33635.3 33592.5 33549.6 33506.6 33463.7 33420.5 33377.4 33334.1 33290.8 33247.5 33204.1 33160.6 33117 33073.4 33029.7 32985.9 32942.1 32898.2 32854.2 32810.2 32766.1 32721.9 32677.7 32633.4 32589 32544.5 32500 32455.4 32410.8 32366.1 32321.3 32276.4 32231.5 32186.5 32141.4 32096.2 32051 32005.8 31960.4 31915 31869.5 31823.9 31778.3 31732.6 31686.9 31640.9 31595 31549 31503 31456.9 31410.6 31364.4 31318 31271.6 31225.2 31178.5 31131.9 31085.2 31038.4 30991.6 30944.6 30897.6 30850.5 30803.4 30756.2 30708.9 30661.5 30614.1 30566.6 30519 30471.3 30423.6 30375.8 30327.9 30280 30231.9 30183.8 30135.6 30087.3 30039.1 29990.6 29942.1 29893.5 29844.9 29796.3 29747.4 29698.5 29649.6 29600.6 29551.6 29502.3 29453.1 29403.8 29354.4 29305 29255.3 29205.7 29156 29106.2 29056.4 29006.4 28956.4 28906.3 28856.1 28805.9 28755.5 28705.1 28654.6 28604 28553.4 28502.6 28451.8 28400.9 28349.9 28298.9 28247.7 28196.5 28145.2 28093.8 28042.4 27990.8 27939.2 27887.5 27835.7 27783.9 27731.9 27679.8 27627.7 27575.5 27523.3 27470.9 27418.4 27365.9 27313.3 27260.6 27207.8 27154.9 27101.9 27048.9 26995.9 26942.5 26889.2 26835.9 26782.4 26729 26675.2 26621.5 26567.7 26513.8 26459.9 26405.8 26351.6 26297.4 26243.1 26188.8 26134.2 26079.7 26025 25970.4 25915.7 25860.7 25805.7 25750.7 25695.7 25640.6 25585.2 25529.9 25474.5 25419.2 25363.8 25308.1 25252.5 25196.9 25141.2 25085.6 25029.7 24973.9 24918.2 24862.4 24806.7 24750.8 24695 24639.3 24583.7 24528 24472.3 24417 24361.9 24306.8 24252.1 24197.4 24142.4 24087.4 24032.4 23977.1 23922.3 23873.7 23825.1 23776.4 23732.7 23683.5 23618.2 23552.7 23487.2 23412.7 23361.5 23331.1 23301 23271.3 23257.1 23252.9 23248.8 23244.6 23240.4 23238.9 23236.3 23231 23225.8 23220.5 23214.8 23187.8 23160.6 23133.2 23105.5 23061.9 22986 22917 22848 22779.2 22722.9 22671.8 22615.5 22559.1 22502.7 22440.1 22372.3 22304.2 22236.1 22168 22099.6 22028.3 21955 21881.8 21808.6 21733.2 21655 21575.2 21495.4 21415.6 21334.2 21249.9 21163.8 21077.6 20991.5 20903.5 20812.5 20719.6 20626.6 20533.6 20438.8 20340.7 20240.5 20140.2 20039.8 19937.5 19831.6 19723.4 19615.1 19506.7 19396.2 19281.9 19164.8 19047.6 18930.3 18810.5 18686.5 18559.7 18432.8 18305.8 18176.4 18042.3 17904.4 17766.2 17627.9 17486 17339 17189.3 17039.5 16889.5 16737.3 16579.5 16414.9 16250 16084.8 15913.3 15735.5 15557.4 15379.2 15201.1 15023 14838.4 14638.9 14438.5 14237.4 14022.2 13799 13585.9 13373.4 13161.4 12960.1 12751.2 12503.7 12254 12002.1 11712.8 11412.6 11157.3 10904.8 10655 10450.3 10237.7 9921.71 9598.14 9265.98 8833.3 8384.31 8071.56 7773.95 7494.36 7349.26 7198.22 6801.74 6357.28 5839.04 5089.67 4311.39 3779.23 3398.31 3250.95 3316.68 3382.98 3362.03 2777.14 1388.16 0