# vtk DataFile Version 2.0
track0
ASCII
DATASET POLYDATA
POINTS 12278 float
-0.0205 0.001 1e-05
-0.02052 0.000999216 1e-05
-0.02054 0.000998592 1e-05
-0.02056 0.000998126 1e-05
-0.02058 0.000997818 1e-05
-0.0206 0.000997665 1e-05
-0.0205 0.00367778 1e-05
-0.02052 0.00367703 1e-05
-0.02054 0.00367643 1e-05
-0.02056 0.00367599 1e-05
-0.02058 0.00367569 1e-05
-0.0206 0.00367554 1e-05
-0.0205 0.00635556 1e-05
-0.02052 0.00635527 1e-05
-0.02054 0.00635505 1e-05
-0.02056 0.00635488 1e-05
-0.02058 0.00635476 1e-05
-0.0206 0.00635471 1e-05
-0.0205 0.00903333 1e-05
-0.02052 0.00903311 1e-05
-0.02054 0.00903293 1e-05
-0.02056 0.0090328 1e-05
-0.02058 0.00903271 1e-05
-0.0206 0.00903266 1e-05
-0.0205 0.0117111 1e-05
-0.02052 0.0117111 1e-05
-0.02054 0.011711 1e-05
-0.02056 0.011711 1e-05
-0.02058 0.011711 1e-05
-0.0206 0.011711 1e-05
-0.0205 0.0143889 1e-05
-0.02052 0.014389 1e-05
-0.02054 0.014389 1e-05
-0.02056 0.0143891 1e-05
-0.02058 0.0143891 1e-05
-0.0206 0.0143891 1e-05
-0.0205 0.0170667 1e-05
-0.02052 0.017067 1e-05
-0.02054 0.0170672 1e-05
-0.02056 0.0170674 1e-05
-0.02058 0.0170675 1e-05
-0.0206 0.0170676 1e-05
-0.0205 0.0197444 1e-05
-0.02052 0.019745 1e-05
-0.02054 0.0197454 1e-05
-0.02056 0.0197457 1e-05
-0.02058 0.0197459 1e-05
-0.0206 0.019746 1e-05
-0.0205 0.0224222 1e-05
-0.02052 0.022423 1e-05
-0.02054 0.0224236 1e-05
-0.02056 0.0224241 1e-05
-0.02058 0.0224244 1e-05
-0.0206 0.0224245 1e-05
-0.0205 0.0251 1e-05
-0.02052 0.0251003 1e-05
-0.02054 0.0251005 1e-05
-0.02056 0.0251007 1e-05
-0.02058 0.0251008 1e-05
-0.0206 0.0251008 1e-05
-0.0205 0.001 1e-05
-0.0203632 0.00100536 1e-05
-0.0202266 0.00101331 1e-05
-0.0200901 0.00102296 1e-05
-0.0200427 0.00102682 1e-05
-0.0198376 0.00104418 1e-05
-0.0196338 0.00107322 1e-05
-0.0194327 0.00111734 1e-05
-0.0192368 0.00118024 1e-05
-0.0190172 0.00124951 1e-05
-0.0189002 0.00128348 1e-05
-0.0187827 0.00131598 1e-05
-0.0186649 0.001347 1e-05
-0.0185469 0.001377 1e-05
-0.0183807 0.00141936 1e-05
-0.0182041 0.00146458 1e-05
-0.0180267 0.00150692 1e-05
-0.0178487 0.0015464 1e-05
-0.0176703 0.00158389 1e-05
-0.0174976 0.00161991 1e-05
-0.0172846 0.00166394 1e-05
-0.0170715 0.00170741 1e-05
-0.0168583 0.00175029 1e-05
-0.0166449 0.00179219 1e-05
-0.0163945 0.00184007 1e-05
-0.0163234 0.00185324 1e-05
-0.0162522 0.00186629 1e-05
-0.016181 0.00187921 1e-05
-0.0161097 0.00189201 1e-05
-0.0160387 0.0019046 1e-05
-0.0157586 0.0019535 1e-05
-0.0154779 0.00199931 1e-05
-0.0151968 0.00204225 1e-05
-0.0149154 0.00208283 1e-05
-0.0146381 0.00212134 1e-05
-0.0143838 0.00215527 1e-05
-0.0141293 0.00218766 1e-05
-0.0138747 0.00221855 1e-05
-0.0136198 0.00224797 1e-05
-0.0132934 0.00228369 1e-05
-0.0132791 0.00228515 1e-05
-0.0132648 0.0022866 1e-05
-0.0132504 0.00228805 1e-05
-0.0132361 0.0022895 1e-05
-0.0132214 0.00229098 1e-05
-0.0129776 0.00231543 1e-05
-0.0127337 0.00233865 1e-05
-0.0124897 0.00236061 1e-05
-0.0122456 0.0023813 1e-05
-0.0120025 0.00240058 1e-05
-0.0117547 0.00241909 1e-05
-0.0115067 0.00243627 1e-05
-0.0112587 0.00245231 1e-05
-0.0110106 0.00246734 1e-05
-0.0107632 0.00248136 1e-05
-0.0105252 0.00249391 1e-05
-0.0102872 0.00250547 1e-05
-0.0100491 0.00251602 1e-05
-0.00981105 0.00252575 1e-05
-0.00957337 0.00253472 1e-05
-0.00934491 0.00254261 1e-05
-0.00911643 0.00254974 1e-05
-0.00888792 0.00255611 1e-05
-0.0086594 0.00256172 1e-05
-0.00843108 0.00256669 1e-05
-0.00821175 0.00257085 1e-05
-0.00799241 0.00257439 1e-05
-0.00777306 0.00257731 1e-05
-0.0075537 0.00257953 1e-05
-0.00733443 0.00258115 1e-05
-0.00712387 0.00258213 1e-05
-0.0069133 0.00258257 1e-05
-0.00670273 0.00258244 1e-05
-0.00649216 0.00258163 1e-05
-0.0062816 0.00258019 1e-05
-0.00607944 0.0025782 1e-05
-0.0058773 0.00257567 1e-05
-0.00567516 0.00257258 1e-05
-0.00547303 0.00256876 1e-05
-0.00527083 0.00256421 1e-05
-0.00507675 0.00255914 1e-05
-0.00488269 0.00255345 1e-05
-0.00468865 0.00254713 1e-05
-0.00449464 0.00253999 1e-05
-0.00430044 0.00253193 1e-05
-0.00411412 0.00252331 1e-05
-0.00392784 0.00251391 1e-05
-0.00374159 0.00250371 1e-05
-0.0035554 0.00249258 1e-05
-0.00336883 0.00248019 1e-05
-0.00318995 0.00246715 1e-05
-0.00301115 0.00245303 1e-05
-0.00283245 0.00243778 1e-05
-0.00265386 0.00242124 1e-05
-0.00247443 0.00240318 1e-05
-0.0023027 0.00238429 1e-05
-0.00213114 0.00236388 1e-05
-0.00195982 0.00234158 1e-05
-0.00178875 0.00231742 1e-05
-0.00161577 0.0022911 1e-05
-0.00161562 0.00229108 1e-05
-0.00161547 0.00229105 1e-05
-0.00161532 0.00229103 1e-05
-0.00161517 0.002291 1e-05
-0.00161502 0.00229098 1e-05
-0.0014503 0.00226408 1e-05
-0.00128598 0.00223483 1e-05
-0.00112209 0.00220328 1e-05
-0.000958639 0.0021695 1e-05
-0.000791418 0.00213241 1e-05
-0.000633135 0.0020943 1e-05
-0.000475556 0.00205338 1e-05
-0.000318719 0.00200969 1e-05
-0.000162834 0.00196273 1e-05
0 0.00190958 1e-05
3.7374e-05 0.00189636 1e-05
7.46478e-05 0.00188287 1e-05
0.000111823 0.00186911 1e-05
0.000148901 0.00185509 1e-05
0.000179231 0.00184338 1e-05
0.000249063 0.00181595 1e-05
0.000318483 0.0017875 1e-05
0.000387479 0.00175804 1e-05
0.000456035 0.00172756 1e-05
0.000528387 0.0016942 1e-05
0.000634886 0.00164322 1e-05
0.000740278 0.00158999 1e-05
0.00084451 0.00153453 1e-05
0.000947621 0.00147701 1e-05
0.00102001 0.00143469 1e-05
0.00102819 0.00142975 1e-05
0.00103635 0.00142479 1e-05
0.00104451 0.00141982 1e-05
0.00105265 0.00141484 1e-05
0.00106088 0.00140978 1e-05
0.00116821 0.0013436 1e-05
0.00127404 0.00127504 1e-05
0.00137827 0.00120409 1e-05
0.00148099 0.00113096 1e-05
0.00159682 0.00104511 1e-05
0.00159696 0.001045 1e-05
0.0015971 0.00104489 1e-05
0.00159724 0.00104478 1e-05
0.00159738 0.00104467 1e-05
0.00159752 0.00104456 1e-05
0.00169221 0.000970976 1e-05
0.0017855 0.000895621 1e-05
0.00187731 0.000818466 1e-05
0.00196771 0.000739655 1e-05
0.00203811 0.000676368 1e-05
0.00205816 0.000657899 1e-05
0.00207812 0.000639341 1e-05
0.00209799 0.000620694 1e-05
0.00211781 0.000601984 1e-05
0.00213833 0.000582493 1e-05
0.00219149 0.000531653 1e-05
0.00224415 0.000480296 1e-05
0.00229629 0.000428414 1e-05
0.0023479 0.000376 1e-05
0.00239422 0.000328255 1e-05
0.00245204 0.000267818 1e-05
0.00250923 0.000206781 1e-05
0.0025658 0.000145162 1e-05
0.00262185 8.30768e-05 1e-05
0.00268334 1.37841e-05 1e-05
0.00268574 1.10273e-05 1e-05
0.00268813 8.26944e-06 1e-05
0.00269053 5.51055e-06 1e-05
0.00269293 2.75062e-06 1e-05
0.00269531 0 1e-05
0.00275921 -7.37368e-05 1e-05
0.00282249 -0.000148005 1e-05
0.00288513 -0.000222813 1e-05
0.0029471 -0.000298173 1e-05
0.00300417 -0.000368654 1e-05
0.00304986 -0.000425907 1e-05
0.00309523 -0.000483404 1e-05
0.0031403 -0.000541144 1e-05
0.00318511 -0.000599078 1e-05
0.00323259 -0.000661022 1e-05
0.00325066 -0.000684837 1e-05
0.00326867 -0.000708691 1e-05
0.00328664 -0.000732585 1e-05
0.00330455 -0.00075652 1e-05
0.00332211 -0.00078009 1e-05
0.00339025 -0.000871878 1e-05
0.0034578 -0.000964108 1e-05
0.00352471 -0.00105679 1e-05
0.00359109 -0.00114986 1e-05
0.00365395 -0.00123896 1e-05
0.00368038 -0.00127682 1e-05
0.00370674 -0.00131473 1e-05
0.00373302 -0.0013527 1e-05
0.00375925 -0.0013907 1e-05
0.00378611 -0.00142974 1e-05
0.00383011 -0.00149388 1e-05
0.0038739 -0.00155818 1e-05
0.00391747 -0.00162262 1e-05
0.00396081 -0.00168722 1e-05
0.00400298 -0.00175044 1e-05
0.00407117 -0.00185324 1e-05
0.00413895 -0.00195632 1e-05
0.00420629 -0.00205969 1e-05
0.00427335 -0.00216323 1e-05
0.00434393 -0.00227288 1e-05
0.00434999 -0.00228236 1e-05
0.00435605 -0.00229185 1e-05
0.00436211 -0.00230134 1e-05
0.00436816 -0.00231083 1e-05
0.0043742 -0.0023203 1e-05
0.00445504 -0.00244725 1e-05
0.00453543 -0.00257449 1e-05
0.00461543 -0.00270197 1e-05
0.00469506 -0.00282968 1e-05
0.00477293 -0.00295498 1e-05
0.00479956 -0.00299798 1e-05
0.00482617 -0.003041 1e-05
0.00485275 -0.00308404 1e-05
0.00487932 -0.00312708 1e-05
0.00490609 -0.00317044 1e-05
0.00496673 -0.00326868 1e-05
0.00502722 -0.00336701 1e-05
0.00508756 -0.00346543 1e-05
0.00514777 -0.00356394 1e-05
0.00520743 -0.00366161 1e-05
0.00526046 -0.00374851 1e-05
0.00531346 -0.00383544 1e-05
0.00536642 -0.0039224 1e-05
0.00541941 -0.00400934 1e-05
0.00547262 -0.00409654 1e-05
0.00551559 -0.00416686 1e-05
0.00555853 -0.00423719 1e-05
0.00560143 -0.00430755 1e-05
0.00564432 -0.00437792 1e-05
0.00568714 -0.00444811 1e-05
0.00575842 -0.00456488 1e-05
0.00582975 -0.00468161 1e-05
0.00590113 -0.00479832 1e-05
0.00597264 -0.00491494 1e-05
0.00604356 -0.00503013 1e-05
0.00607979 -0.00508875 1e-05
0.00611604 -0.00514737 1e-05
0.00615229 -0.00520599 1e-05
0.00618857 -0.00526459 1e-05
0.00622496 -0.00532326 1e-05
0.00630375 -0.00545007 1e-05
0.00638274 -0.00557676 1e-05
0.00646192 -0.00570334 1e-05
0.00654137 -0.00582974 1e-05
0.00661893 -0.00595232 1e-05
0.00666279 -0.0060212 1e-05
0.00670671 -0.00609004 1e-05
0.00675068 -0.00615885 1e-05
0.00679473 -0.0062276 1e-05
0.00683916 -0.00629671 1e-05
0.00691109 -0.0064082 1e-05
0.00698326 -0.00651952 1e-05
0.0070557 -0.00663067 1e-05
0.00712843 -0.00674163 1e-05
0.00719878 -0.00684817 1e-05
0.00726941 -0.00695434 1e-05
0.00734025 -0.00706037 1e-05
0.00741132 -0.00716624 1e-05
0.0074827 -0.00727191 1e-05
0.00755561 -0.00737909 1e-05
0.00760112 -0.0074455 1e-05
0.00764675 -0.00751182 1e-05
0.00769251 -0.00757806 1e-05
0.0077384 -0.0076442 1e-05
0.00778313 -0.00770834 1e-05
0.00790091 -0.00787633 1e-05
0.00801946 -0.00804379 1e-05
0.00813878 -0.0082107 1e-05
0.0082591 -0.00837688 1e-05
0.00837203 -0.00853081 1e-05
0.00837963 -0.00854103 1e-05
0.00838723 -0.00855124 1e-05
0.00839483 -0.00856145 1e-05
0.00840243 -0.00857166 1e-05
0.00841006 -0.00858189 1e-05
0.00852115 -0.00873071 1e-05
0.00863307 -0.00887891 1e-05
0.00874582 -0.00902647 1e-05
0.00885945 -0.00917336 1e-05
0.00896551 -0.0093086 1e-05
0.00902997 -0.00938975 1e-05
0.0090947 -0.00947068 1e-05
0.00915969 -0.0095514 1e-05
0.00922498 -0.00963188 1e-05
0.00929244 -0.00971438 1e-05
0.00934667 -0.00978018 1e-05
0.0094011 -0.00984582 1e-05
0.00945572 -0.0099113 1e-05
0.00951055 -0.00997661 1e-05
0.0095636 -0.0100394 1e-05
[...]
POINT_DATA 12278
 FIELD attributes 2
p 1 12278 float
177015 177097 177170 177233 177287 177332
108949 108967 108983 108998 109010 109020
87755.6 87765.2 87774.5 87783.7 87792.7 87801.1
79937.9 79944.2 79950.4 79956.6 79962.6 79968.6
77147 77156.2 77165.5 77174.7 77183.9 77193.1
77564.4 77578 77591.5 77605.1 77618.7 77632.2
81097.6 81110 81122.3 81134.3 81146.3 81158
90924.1 90943.8 90962.8 90981.1 90998.7 91015.6
117356 117389 117419 117447 117473 117497
215475 215285 215093 214899 214703 214505
177015 173410 169083 164505 162838 158907 155524 152874 144708 134667 129224 123796 119857 119247 118395 112349 106450 102329 101433 100566 99583.9 98601.7 97175.1 95706.8 93991.1 93624.7 93257.7 92890.1 92409.1 91911.4 89991.9 88187.9 86674 85886.6 85109.9 84424.1 83759.3 83109.5 82457.7 81623.8 81588.9 81560 81531.9 81503.9 81475.1 80942.3 80410 79878.2 79346.9 78921.8 78495.6 78086.4 77688.7 77313.1 76947.2 76597.2 76246.9 75923.2 75621.7 75320.6 75031.2 74741.5 74463 74200.2 73937.5 73683.9 73430.2 73180.1 72943.9 72707.9 72479 72250.1 72019.5 71800.1 71580.9 71367.2 71153.7 70935.1 70724.2 70513.5 70306.4 70099.5 69886.5 69674.1 69461.9 69250 69038.6 68823.4 68595.4 68367.8 68134.8 67899.2 67655.1 67402.5 67136.6 66856.3 66542.6 66230.4 65919.8 65606.8 65606.4 65606.1 65605.7 65605.3 65604.9 65213.7 64828.4 64448.6 64050.6 63570.7 63055.2 62545.5 61844.6 61071.5 60258.4 60010 59771.9 59544.6 59318 59132.6 58575.9 58017.1 57456.2 56983.1 56515 55910.5 55307.8 54768 54227 53841.9 53783.9 53725.9 53670.7 53623.2 53575.2 53022 52461.8 51943.7 51471.4 50925.5 50924.6 50923.7 50922.9 50922.3 50921.6 50494.4 50059.7 49657.1 49321.6 49052.5 48953.4 48853.9 48783.1 48713.5 48641 48452.5 48261.6 48069 47924.5 47792.4 47619.7 47451.1 47311.6 47169.9 47010.7 47004.2 46997.7 46991.3 46985.4 46979.8 46874.6 46762.3 46647.5 46534.3 46427.3 46391.8 46355.1 46315.5 46275.2 46231.4 46211.3 46191 46170.5 46149.3 46128.2 46102.8 46076.1 46039 45996.7 45955.2 45957.6 45959.7 45959 45958.2 45957.2 45945.9 45934.2 45922.1 45907 45891.8 45901.6 45910.7 45915.2 45919.2 45922.9 45922 45921.2 45920.3 45919.3 45918.2 45931.7 45945.3 45958 45968.7 45979 45989.2 45999.5 46009.3 46019 46028.7 46040.3 46051.6 46062.9 46073.9 46084.8 46103.3 46121.7 46140.1 46158.6 46177.2 46185.8 46194.3 46203 46212.1 46221.2 46243.9 46266.6 46289.9 46313.8 46337.6 46345 46352.4 46360.1 46368.3 46376.6 46399.8 46423.1 46447.3 46472.5 46497.3 46506.1 46515.1 46524.7 46534.9 46545.2 46564.9 46584.6 46605 46626.9 46648.1 46662 46675.9 46691.6 46707.8 46724.5 46736.1 46747.6 46759.4 46772 46784.4 46806.4 46828.5 46853.9 46880.1 46906 46907.1 46908.2 46909.6 46910.9 46912.3 46933.5 46954.9 46976.7 47000.6 47022.9 47032.4 47042 47053 47064 47075.4 47085.1 47094.9 47104.7 47115.1 47125.3 47142.5 47159.8 47178.7 47198.6 47217.9 47220.5 47223.1 47226 47228.9 47231.9 47246.2 47260.7 47275.2 47290.8 47305.8 47319.5 47333.6 47349.1 47364.7 47381.5 47381.6 47381.7 47381.8 47381.9 47382 47396.6 47411.3 47426.2 47442 47457.3 47469.3 47481.9 47495.5 47509.1 47522.3 47522.8 47523.5 47524.1 47524.8 47525.4 47537.2 47549.1 47561 47573.7 47586.2 47596.4 47606.8 47618.4 47630.6 47642.6 47646.6 47650.9 47655.6 47660.2 47665.1 47671 47676.9 47682.8 47688.9 47695.3 47704.1 47713.2 47723 47733.8 47744.3 47751.9 47760 47768.9 47777.8 47787 47789.1 47791.5 47794 47796.5 47799.1 47804.5 47809.9 47815.3 47820.8 47826.9 47833.1 47839.7 47846.6 47854.6 47862.4 47867.5 47872.6 47878.8 47885.4 47892.2 47895.7 47900.4 47905 47909.7 47914.9 47915.2 47915.4 47915.7 47916 47916.3 47920.4 47924.5 47928.7 47932.8 47937.8 47940.1 47942.7 47945.6 47949.5 47953.4 47954.5 47955.6 47957.6 47960.3 47963 47962.9 47963.4 47964.3 47965.1 47966.6 47965.7 47965.5 47965.2 47964.9 47964.5 47964.5 47964.4 47964.4 47964.4 47964.4 47963.1 47961.7 47960.4 47959 47958.2 47955 47952.4 47949.9 47947.6 47945.8 47941.4 47937.1 47933.3 47930.3 47927.2 47921.7 47916.2 47911.2 47906.9 47902.7 47896 47889.4 47883.3 47877.6 47872.2 47864.4 47857 47849.7 47842.5 47835.8 47827.1 47818.7 47810.3 47801.9 47793.8 47785.3 47776.8 47768.4 47760 47750.1 47749.4 47748.6 47747.8 47747.1 47746.3 47735.9 47725.4 47715 47704.5 47694.1 47682.4 47670.9 47659.4 47647.9 47636.6 47623.6 47611.1 47598.6 47586.1 47573.8 47559.8 47546.2 47532.7 47519.3 47506 47491.2 47476.4 47462 47447.7 47433.5 47417.7 47402 47386.7 47371.5 47356.3 47339.7 47323.2 47306.9 47290.8 47274.7 47257.4 47240 47222.8 47205.9 47189 47170.9 47152.8 47134.7 47117 47099.2 47080.4 47061.6 47042.7 47024.2 47005.7 46986.2 46966.7 46947.2 46927.8 46908.6 46888.5 46868.3 46848.1 46828 46808.1 46787.4 46766.6 46745.7 46725 46704.4 46683.1 46661.7 46640.3 46618.9 46597.7 46575.8 46553.9 46531.9 46509.9 46488.1 46465.8 46443.2 46420.7 46398.2 46375.9 46353 46330 46307 46284 46261.1 46237.8 46214.3 46190.8 46167.4 46144 46120.2 46096.3 46072.4 46048.5 46024.7 46000.5 45976.2 45951.8 45927.5 45903.3 45878.7 45854 45829.3 45804.6 45779.9 45755 45729.9 45704.8 45679.8 45654.7 45629.4 45604 45578.6 45553.2 45527.8 45502.2 45476.5 45450.8 45425 45399.3 45373.4 45347.4 45321.3 45295.3 45269.3 45243.1 45216.8 45190.5 45164.2 45137.9 45111.3 45084.8 45058.2 45031.6 45005.1 44978.3 44951.5 44924.6 44897.8 44871 44844 44816.9 44789.9 44762.8 44735.7 44708.5 44681.2 44653.9 44626.6 44599.3 44571.9 44544.3 44516.8 44489.3 44461.8 44434.1 44406.4 44378.7 44351 44323.3 44295.4 44267.5 44239.6 44211.6 44183.7 44155.6 44127.5 44099.4 44071.3 44043.2 44014.9 43986.6 43958.3 43930 43901.7 43873.3 43844.8 43816.3 43787.8 43759.4 43730.7 43702.1 43673.4 43644.7 43616.1 43587.3 43558.4 43529.6 43500.8 43471.9 43442.9 43413.9 43384.9 43355.9 43326.9 43297.8 43268.6 43239.4 43210.2 43181 43151.7 43122.4 43093 43063.6 43034.3 43004.8 42975.3 42945.8 42916.2 42886.7 42857 42827.3 42797.6 42768 42738.2 42708.4 42678.6 42648.7 42618.8 42588.9 42558.9 42528.9 42498.9 42468.8 42438.8 42408.6 42378.4 42348.2 42318 42287.7 42257.4 42227 42196.6 42166.2 42135.8 42105.3 42074.7 42044.1 42013.6 41983 41952.2 41921.5 41890.7 41860 41829.2 41798.3 41767.4 41736.4 41705.5 41674.5 41643.5 41612.3 41581.2 41550.1 41518.9 41487.7 41456.3 41425 41393.7 41362.4 41330.9 41299.4 41267.9 41236.4 41204.8 41173.2 41141.4 41109.7 41078 41046.3 41014.4 40982.5 40950.6 40918.7 40886.7 40854.6 40822.5 40790.4 40758.3 40726.1 40693.8 40661.5 40629.2 40596.9 40564.5 40532 40499.4 40466.9 40434.4 40401.8 40369.1 40336.3 40303.5 40270.8 40238 40205 40172 40139.1 40106.1 40073 40039.9 40006.7 39973.5 39940.3 39907 39873.6 39840.2 39806.7 39773.3 39739.8 39706.2 39672.5 39638.8 39605.1 39571.4 39537.6 39503.6 39469.7 39435.8 39401.8 39367.7 39333.6 39299.4 39265.3 39231.1 39196.7 39162.3 39127.9 39093.5 39059.1 39024.5 38989.8 38955.2 38920.5 38885.8 38851 38816.1 38781.2 38746.3 38711.3 38676.2 38641 38605.9 38570.7 38535.5 38500.1 38464.7 38429.3 38393.9 38358.4 38322.8 38287.1 38251.4 38215.7 38180 38144.1 38108.2 38072.2 38036.3 38000.2 37964.1 37927.9 37891.7 37855.4 37819.1 37782.7 37746.2 37709.7 37673.2 37636.7 37600 37563.2 37526.5 37489.7 37452.8 37415.9 37378.8 37341.8 37304.7 37267.6 37230.3 37193 37155.7 37118.3 37080.9 37043.4 37005.8 36968.2 36930.5 36892.8 36855 36817.1 36779.2 36741.3 36703.3 36665.2 36627 36588.8 36550.6 36512.3 36473.9 36435.5 36397 36358.5 36319.9 36281.2 36242.4 36203.6 36164.8 36126 36086.9 36047.9 36008.8 35969.7 35930.5 35891.2 35851.9 35812.5 35773 35733.6 35694 35654.3 35614.6 35574.9 35535.1 35495.2 35455.2 35415.2 35375.2 35335.1 35294.9 35254.6 35214.3 35173.9 35133.5 35093 35052.4 35011.8 34971.1 34930.4 34889.5 34848.7 34807.7 34766.7 34725.7 34684.5 34643.3 34602.1 34560.7 34519.4 34477.9 34436.4 34394.8 34353.2 34311.5 34269.7 34227.8 34185.9 34144 34102 34059.8 34017.7 33975.4 33933.1 33890.8 33848.4 33805.9 33763.3 33720.7 33678 33635.2 33592.4 33549.5 33506.6 33463.6 33420.5 33377.3 33334.1 33290.8 33247.5 33204 33160.5 33117 33073.3 33029.7 32985.9 32942 32898.1 32854.2 32810.2 32766 32721.9 32677.6 32633.3 32589 32544.5 32500 32455.4 32410.7 32366.1 32321.2 32276.3 32231.4 32186.4 32141.4 32096.2 32051 32005.7 31960.3 31915 31869.4 31823.9 31778.2 31732.5 31686.8 31640.9 31595 31549 31502.9 31456.9 31410.6 31364.3 31318 31271.5 31225.1 31178.5 31131.8 31085.1 31038.4 30991.6 30944.6 30897.6 30850.5 30803.3 30756.2 30708.8 30661.5 30614 30566.5 30519 30471.3 30423.5 30375.7 30327.8 30279.9 30231.8 30183.7 30135.5 30087.3 30039 29990.5 29942.1 29893.5 29844.9 29796.2 29747.4 29698.5 29649.6 29600.5 29551.5 29502.3 29453 29403.7 29354.3 29304.9 29255.3 29205.6 29155.9 29106.1 29056.3 29006.3 28956.3 28906.2 28856 28805.8 28755.4 28705 28654.5 28603.9 28553.4 28502.5 28451.7 28400.8 28349.9 28298.9 28247.7 28196.4 28145.1 28093.8 28042.4 27990.8 27939.1 27887.4 27835.6 27783.9 27731.8 27679.8 27627.7 27575.5 27523.3 27470.8 27418.4 27365.8 27313.2 27260.6 27207.7 27154.8 27101.9 27048.8 26995.8 26942.5 26889.2 26835.8 26782.4 26728.9 26675.2 26621.4 26567.6 26513.8 26459.9 26405.7 26351.6 26297.4 26243.1 26188.8 26134.2 26079.6 26025 25970.3 25915.6 25860.6 25805.6 25750.7 25695.6 25640.5 25585.2 25529.8 25474.5 25419.1 25363.7 25308 25252.4 25196.8 25141.2 25085.5 25029.6 24973.8 24918.1 24862.4 24806.6 24750.7 24695 24639.3 24583.6 24528 24472.2 24416.9 24361.8 24306.8 24252 24197.4 24142.4 24087.4 24032.4 23977 23922.3 23873.6 23825 23776.4 23732.6 23683.5 23618.1 23552.7 23487.1 23412.6 23361.5 23331.1 23301 23271.2 23257 23252.9 23248.7 23244.5 23240.4 23238.8 23236.2 23231 23225.7 23220.4 23214.7 23187.8 23160.6 23133.1 23105.4 23061.8 22985.9 22916.9 22848 22779.1 22722.9 22671.7 22615.4 22559.1 22502.7 22440 22372.3 22304.2 22236.1 22168 22099.5 22028.2 21955 21881.8 21808.5 21733.2 21654.9 21575.1 21495.3 21415.5 21334.1 21249.9 21163.7 21077.6 20991.4 20903.4 20812.4 20719.5 20626.5 20533.5 20438.7 20340.6 20240.4 20140.1 20039.7 19937.4 19831.5 19723.3 19615 19506.6 19396.2 19281.8 19164.8 19047.5 18930.2 18810.5 18686.4 18559.7 18432.8 18305.8 18176.3 18042.3 17904.3 17766.2 17627.8 17486 17339 17189.3 17039.4 16889.5 16737.2 16579.4 16414.9 16249.9 16084.7 15913.2 15735.5 15557.4 15379.2 15201 15023 14838.3 14638.8 14438.5 14237.4 14022.1 13798.9 13585.8 13373.3 13161.4 12960.1 12751.2 12503.7 12253.9 12002 11712.7 11412.6 11157.2 10904.7 10655 10450.2 10237.6 9921.66 9598.08 9265.92 8833.24 8384.25 8071.49 7773.88 7494.29 7349.18 7198.15 6801.67 6357.21 5838.97 5089.6 4311.32 3779.16 3398.24 3250.9 3316.63 3382.94 3362 2777.12 1388.15 0