4.545454545e-05 	0.0003711890321 	6.966877003e-05 	9.451490307e-12
6.060606061e-05 	0.0009597025311 	0.0001801270039 	2.443623767e-11
7.575757576e-05 	0.001548216041 	0.0002905852425 	3.942098845e-11
9.090909091e-05 	0.002163591203 	0.0003934693178 	4.704442618e-11
0.0001060606061 	0.002809050251 	0.0004878734135 	4.642763186e-11
0.0001212121212 	0.003454509296 	0.0005822775108 	4.581083622e-11
0.0001363636364 	0.004118573092 	0.0006711337709 	4.52584707e-11
0.0001515151515 	0.004823523043 	0.000747802436 	4.484827188e-11
0.0001666666667 	0.005528472973 	0.0008244710991 	4.443807234e-11
0.0001818181818 	0.006243602671 	0.000898720516 	4.412391044e-11
0.000196969697 	0.007014758466 	0.0009596627107 	4.433628921e-11
0.0002121212121 	0.007785914249 	0.001020604904 	4.454866756e-11
0.0002272727273 	0.008557070024 	0.001081547097 	4.476104559e-11
0.0002424242424 	0.009405984483 	0.001129464188 	4.442130886e-11
0.0002575757576 	0.01025530637 	0.001177313897 	4.407855336e-11
0.0002727272727 	0.01110462823 	0.001225163604 	4.373579787e-11
0.0002878787879 	0.01203305366 	0.001264080991 	4.323288706e-11
0.000303030303 	0.01297701786 	0.001301244509 	4.269808719e-11
0.0003181818182 	0.01392098204 	0.001338408023 	4.216328825e-11
0.0003333333333 	0.01494196588 	0.001369816648 	4.070011934e-11
0.0003484848485 	0.01599972254 	0.001398478294 	3.8794046e-11
0.0003636363636 	0.01705747915 	0.001427139933 	3.68879729e-11
0.0003787878788 	0.01818441618 	0.0014523185 	3.549135825e-11
0.0003939393939 	0.01937575944 	0.001474254993 	3.4569701e-11
0.0004090909091 	0.02056710262 	0.001496191479 	3.364804257e-11
0.0004242424242 	0.02181314298 	0.001516159154 	3.404359499e-11
0.0004393939394 	0.02315689081 	0.001532610513 	3.679215715e-11
0.0004545454545 	0.02450063857 	0.001549061867 	3.95407186e-11
0.0004696969697 	0.02587824506 	0.001564559307 	4.191290129e-11
0.0004848484848 	0.02739135533 	0.001576239942 	4.277767947e-11
0.0005 	0.02890446557 	0.001587920573 	4.364245746e-11
0.0005151515152 	0.03042512195 	0.00159941809 	4.441547255e-11
0.0005303030303 	0.03212254315 	0.001606628951 	4.304593886e-11
0.0005454545455 	0.03381996428 	0.00161383981 	4.16764049e-11
0.0005606060606 	0.03551738535 	0.001621050666 	4.030687063e-11
0.0005757575758 	0.03738906076 	0.001624351896 	4.019736398e-11
0.0005909090909 	0.03928405669 	0.001627129972 	4.025610536e-11
0.0006060606061 	0.04117905256 	0.001629908043 	4.031484674e-11
0.0006212121212 	0.04322560663 	0.001629415661 	3.964965399e-11
0.0006363636364 	0.04533022968 	0.001627670267 	3.870702637e-11
0.0006515151515 	0.0474348526 	0.001625924865 	3.776439887e-11
0.0006666666667 	0.04966404586 	0.001621560805 	3.676411266e-11
0.0006818181818 	0.05198953335 	0.001615172511 	3.571973677e-11
0.000696969697 	0.05431502071 	0.001608784209 	3.467535981e-11
0.0007121212121 	0.05673428578 	0.001600480065 	3.406369382e-11
0.0007272727273 	0.05929130277 	0.001589361664 	3.408764445e-11
0.0007424242424 	0.06184831961 	0.001578243261 	3.411159462e-11
0.0007575757576 	0.06446481709 	0.001565955864 	3.39567875e-11
0.0007727272727 	0.06726356768 	0.001550086426 	3.325390146e-11
0.0007878787879 	0.07006231818 	0.001534216984 	3.255101501e-11
0.000803030303 	0.07288297056 	0.001517939494 	3.188250844e-11
0.0008181818182 	0.0759332311 	0.001497383582 	3.157388364e-11
0.0008333333333 	0.07898349156 	0.001476827668 	3.126525876e-11
0.0008484848485 	0.08203375195 	0.001456271753 	3.095663382e-11
0.0008636363636 	0.08532611678 	0.001431517397 	3.252085682e-11
0.0008787878788 	0.08863723606 	0.001406437719 	3.422977001e-11
0.0008939393939 	0.09194835523 	0.001381358037 	3.593868392e-11
0.0009090909091 	0.09546696432 	0.001353007543 	3.545867667e-11
0.0009242424242 	0.0990478564 	0.001323675105 	3.432171907e-11
0.0009393939394 	0.1026287483 	0.001294342662 	3.318476206e-11
0.0009545454545 	0.1063794158 	0.001262652537 	3.018930999e-11
0.0009696969697 	0.1102385595 	0.001229455809 	2.600763487e-11
0.0009848484848 	0.1140977029 	0.001196259075 	2.182595716e-11
0.001 	0.1180860222 	0.001161551082 	1.940623301e-11
0.001015151515 	0.1222314759 	0.00112500445 	1.913046441e-11
0.00103030303 	0.1263769293 	0.001088457819 	1.885469405e-11
0.001045454545 	0.1306082877 	0.00105112179 	1.903340056e-11
0.001060606061 	0.135047738 	0.001011873106 	2.031152391e-11
0.001075757576 	0.1394871881 	0.0009726244195 	2.158964592e-11
0.001090909091 	0.1439667976 	0.0009331207151 	2.255603036e-11
0.001106060606 	0.1487076985 	0.0008919567297 	2.1490696e-11
0.001121212121 	0.1534485993 	0.0008507927442 	2.042536177e-11
0.001136363636 	0.1581895 	0.0008096287586 	1.936002766e-11
0.001151515152 	0.1632315526 	0.000767499963 	1.773021318e-11
0.001166666667 	0.1682815666 	0.0007253455164 	1.608498727e-11
0.001181818182 	0.1733315805 	0.0006831910693 	1.44397629e-11
0.001196969697 	0.17864127 	0.0006410896785 	9.890492295e-12
0.001212121212 	0.1840098001 	0.0005990001443 	4.683336262e-12
0.001227272727 	0.1893783299 	0.0005569106091 	-5.238181972e-13
0.001242424242 	0.1949669019 	0.0005156596158 	-3.761366154e-12
0.001257575758 	0.2006707141 	0.0004748475948 	-5.966856183e-12
0.001272727273 	0.2063745259 	0.0004340355755 	-8.17234599e-12
0.001287878788 	0.2122675735 	0.0003945927955 	-7.367953711e-12
0.001303030303 	0.2183519043 	0.0003565338488 	-3.521174375e-12
0.001318181818 	0.2244362348 	0.0003184749019 	3.256049121e-13
0.001333333333 	0.2307012482 	0.0002818211518 	3.084671735e-12
0.001348484848 	0.2373196281 	0.0002479151859 	3.717875434e-12
0.001363636364 	0.2439380076 	0.0002140092204 	4.351077568e-12
0.001378787879 	0.2507546706 	0.000180700822 	4.102023184e-12
0.001393939394 	0.2584786796 	0.0001501256483 	-1.84418674e-13
0.001409090909 	0.2662026885 	0.0001195504749 	-4.47086086e-12
0.001424242424 	0.2739964895 	8.902042027e-05 	-8.61413098e-12
0.001439393939 	0.2851490894 	6.065727269e-05 	-5.869566612e-12
0.001454545455 	0.2963016886 	3.229412578e-05 	-3.125003206e-12
0.00146969697 	0.3074542871 	3.930979713e-06 	-3.804410207e-13
