# vtk DataFile Version 2.0
track0
ASCII
DATASET POLYDATA
POINTS 12278 float
-0.0205 0.001 1e-05
-0.02052 0.000999216 1e-05
-0.02054 0.000998592 1e-05
-0.02056 0.000998126 1e-05
-0.02058 0.000997818 1e-05
-0.0206 0.000997665 1e-05
-0.0205 0.00367778 1e-05
-0.02052 0.00367703 1e-05
-0.02054 0.00367643 1e-05
-0.02056 0.00367599 1e-05
-0.02058 0.00367569 1e-05
-0.0206 0.00367554 1e-05
-0.0205 0.00635556 1e-05
-0.02052 0.00635527 1e-05
-0.02054 0.00635505 1e-05
-0.02056 0.00635488 1e-05
-0.02058 0.00635476 1e-05
-0.0206 0.00635471 1e-05
-0.0205 0.00903333 1e-05
-0.02052 0.00903311 1e-05
-0.02054 0.00903293 1e-05
-0.02056 0.0090328 1e-05
-0.02058 0.00903271 1e-05
-0.0206 0.00903266 1e-05
-0.0205 0.0117111 1e-05
-0.02052 0.0117111 1e-05
-0.02054 0.011711 1e-05
-0.02056 0.011711 1e-05
-0.02058 0.011711 1e-05
-0.0206 0.011711 1e-05
-0.0205 0.0143889 1e-05
-0.02052 0.014389 1e-05
-0.02054 0.014389 1e-05
-0.02056 0.0143891 1e-05
-0.02058 0.0143891 1e-05
-0.0206 0.0143891 1e-05
-0.0205 0.0170667 1e-05
-0.02052 0.017067 1e-05
-0.02054 0.0170672 1e-05
-0.02056 0.0170674 1e-05
-0.02058 0.0170675 1e-05
-0.0206 0.0170676 1e-05
-0.0205 0.0197444 1e-05
-0.02052 0.019745 1e-05
-0.02054 0.0197454 1e-05
-0.02056 0.0197457 1e-05
-0.02058 0.0197459 1e-05
-0.0206 0.019746 1e-05
-0.0205 0.0224222 1e-05
-0.02052 0.022423 1e-05
-0.02054 0.0224236 1e-05
-0.02056 0.0224241 1e-05
-0.02058 0.0224244 1e-05
-0.0206 0.0224245 1e-05
-0.0205 0.0251 1e-05
-0.02052 0.0251003 1e-05
-0.02054 0.0251005 1e-05
-0.02056 0.0251007 1e-05
-0.02058 0.0251008 1e-05
-0.0206 0.0251008 1e-05
-0.0205 0.001 1e-05
-0.0203632 0.00100536 1e-05
-0.0202266 0.00101331 1e-05
-0.0200901 0.00102296 1e-05
-0.0200427 0.00102682 1e-05
-0.0198376 0.00104418 1e-05
-0.0196338 0.00107322 1e-05
-0.0194327 0.00111734 1e-05
-0.0192368 0.00118024 1e-05
-0.0190172 0.00124951 1e-05
-0.0189002 0.00128348 1e-05
-0.0187827 0.00131598 1e-05
-0.0186649 0.001347 1e-05
-0.0185469 0.001377 1e-05
-0.0183807 0.00141936 1e-05
-0.0182041 0.00146458 1e-05
-0.0180267 0.00150692 1e-05
-0.0178487 0.0015464 1e-05
-0.0176703 0.00158389 1e-05
-0.0174976 0.0016199 1e-05
-0.0172846 0.00166394 1e-05
-0.0170715 0.00170741 1e-05
-0.0168583 0.00175029 1e-05
-0.0166449 0.00179219 1e-05
-0.0163945 0.00184007 1e-05
-0.0163234 0.00185324 1e-05
-0.0162522 0.00186628 1e-05
-0.016181 0.00187921 1e-05
-0.0161097 0.00189201 1e-05
-0.0160387 0.0019046 1e-05
-0.0157586 0.0019535 1e-05
-0.0154779 0.00199931 1e-05
-0.0151968 0.00204224 1e-05
-0.0149154 0.00208283 1e-05
-0.0146381 0.00212133 1e-05
-0.0143838 0.00215526 1e-05
-0.0141293 0.00218765 1e-05
-0.0138746 0.00221855 1e-05
-0.0136198 0.00224797 1e-05
-0.0132934 0.00228368 1e-05
-0.0132791 0.00228514 1e-05
-0.0132647 0.00228659 1e-05
-0.0132504 0.00228805 1e-05
-0.013236 0.00228949 1e-05
-0.0132213 0.00229098 1e-05
-0.0129775 0.00231543 1e-05
-0.0127337 0.00233865 1e-05
-0.0124897 0.00236061 1e-05
-0.0122456 0.00238129 1e-05
-0.0120025 0.00240057 1e-05
-0.0117547 0.00241908 1e-05
-0.0115067 0.00243626 1e-05
-0.0112587 0.0024523 1e-05
-0.0110106 0.00246733 1e-05
-0.0107632 0.00248135 1e-05
-0.0105252 0.00249391 1e-05
-0.0102872 0.00250547 1e-05
-0.0100491 0.00251601 1e-05
-0.00981105 0.00252575 1e-05
-0.00957337 0.00253471 1e-05
-0.00934491 0.00254261 1e-05
-0.00911643 0.00254974 1e-05
-0.00888792 0.00255611 1e-05
-0.0086594 0.00256172 1e-05
-0.00843108 0.00256669 1e-05
-0.00821175 0.00257086 1e-05
-0.00799241 0.0025744 1e-05
-0.00777306 0.00257732 1e-05
-0.0075537 0.00257954 1e-05
-0.00733443 0.00258117 1e-05
-0.00712387 0.00258215 1e-05
-0.0069133 0.00258259 1e-05
-0.00670273 0.00258247 1e-05
-0.00649216 0.00258166 1e-05
-0.0062816 0.00258022 1e-05
-0.00607944 0.00257824 1e-05
-0.0058773 0.00257571 1e-05
-0.00567516 0.00257262 1e-05
-0.00547303 0.00256881 1e-05
-0.00527083 0.00256426 1e-05
-0.00507675 0.0025592 1e-05
-0.00488269 0.00255351 1e-05
-0.00468865 0.0025472 1e-05
-0.00449464 0.00254007 1e-05
-0.00430044 0.00253201 1e-05
-0.00411412 0.0025234 1e-05
-0.00392784 0.002514 1e-05
-0.00374159 0.00250382 1e-05
-0.0035554 0.00249269 1e-05
-0.00336883 0.00248031 1e-05
-0.00318995 0.00246727 1e-05
-0.00301115 0.00245316 1e-05
-0.00283245 0.00243792 1e-05
-0.00265386 0.0024214 1e-05
-0.00247443 0.00240334 1e-05
-0.0023027 0.00238447 1e-05
-0.00213114 0.00236407 1e-05
-0.00195982 0.00234178 1e-05
-0.00178875 0.00231763 1e-05
-0.00161577 0.00229132 1e-05
-0.00161535 0.00229125 1e-05
-0.00161493 0.00229118 1e-05
-0.00161451 0.00229111 1e-05
-0.00161409 0.00229105 1e-05
-0.00161367 0.00229098 1e-05
-0.00144922 0.00226411 1e-05
-0.00128517 0.0022349 1e-05
-0.00112154 0.00220341 1e-05
-0.00095836 0.00216969 1e-05
-0.000791418 0.00213267 1e-05
-0.000633135 0.00209457 1e-05
-0.000475556 0.00205366 1e-05
-0.000318718 0.00200999 1e-05
-0.000162832 0.00196304 1e-05
0 0.00190991 1e-05
3.75627e-05 0.00189663 1e-05
7.50243e-05 0.00188308 1e-05
0.000112386 0.00186925 1e-05
0.00014965 0.00185515 1e-05
0.0001801 0.00184339 1e-05
0.000249758 0.00181603 1e-05
0.000319007 0.00178765 1e-05
0.000387833 0.00175826 1e-05
0.000456222 0.00172786 1e-05
0.000528387 0.00169459 1e-05
0.000634886 0.00164363 1e-05
0.000740279 0.00159042 1e-05
0.000844511 0.00153497 1e-05
0.000947623 0.00147747 1e-05
0.0010208 0.0014347 1e-05
0.00102882 0.00142985 1e-05
0.00103682 0.00142499 1e-05
0.00104482 0.00142012 1e-05
0.00105281 0.00141523 1e-05
0.00106088 0.00141027 1e-05
0.00116821 0.00134411 1e-05
0.00127404 0.00127558 1e-05
0.00137827 0.00120465 1e-05
0.00148099 0.00113154 1e-05
0.00159752 0.0010452 1e-05
0.00159754 0.00104518 1e-05
0.00159756 0.00104517 1e-05
0.00159758 0.00104515 1e-05
0.0015976 0.00104513 1e-05
0.00159762 0.00104512 1e-05
0.00169248 0.000971421 1e-05
0.00178594 0.00089595 1e-05
0.0018779 0.000818673 1e-05
0.00196845 0.000739735 1e-05
0.00203894 0.000676374 1e-05
0.00205882 0.000658057 1e-05
0.00207861 0.000639652 1e-05
0.00209833 0.00062116 1e-05
0.00211798 0.000602605 1e-05
0.00213833 0.000583282 1e-05
0.00219167 0.000532285 1e-05
0.0022445 0.000480767 1e-05
0.00229682 0.000428721 1e-05
0.0023486 0.00037614 1e-05
0.00239505 0.000328259 1e-05
0.0024527 0.000267992 1e-05
0.00250973 0.00020713 1e-05
0.00256614 0.000145687 1e-05
0.00262203 8.37813e-05 1e-05
0.00268334 1.47064e-05 1e-05
0.0026859 1.17651e-05 1e-05
0.00268846 8.82267e-06 1e-05
0.00269101 5.87903e-06 1e-05
0.00269357 2.93422e-06 1e-05
0.00269611 0 1e-05
0.00276001 -7.37373e-05 1e-05
0.00282328 -0.000148007 1e-05
0.00288591 -0.000222817 1e-05
0.00294788 -0.000298179 1e-05
0.00300494 -0.000368656 1e-05
0.00305047 -0.000425725 1e-05
0.00309569 -0.000483038 1e-05
0.00314061 -0.00054059 1e-05
0.00318527 -0.000598337 1e-05
0.00323259 -0.000660073 1e-05
0.0032508 -0.000684078 1e-05
0.00326896 -0.000708123 1e-05
0.00328707 -0.00073221 1e-05
0.00330512 -0.000756337 1e-05
0.00332282 -0.000780094 1e-05
0.00339094 -0.000871882 1e-05
0.00345846 -0.000964113 1e-05
0.00352536 -0.0010568 1e-05
0.00359172 -0.00114987 1e-05
0.00365455 -0.00123896 1e-05
0.00368086 -0.00127667 1e-05
0.0037071 -0.00131442 1e-05
0.00373326 -0.00135223 1e-05
0.00375937 -0.00139007 1e-05
0.00378611 -0.00142894 1e-05
0.0038302 -0.00149325 1e-05
0.00387408 -0.0015577 1e-05
0.00391774 -0.00162231 1e-05
0.00396117 -0.00168707 1e-05
0.00400343 -0.00175044 1e-05
0.00407153 -0.00185317 1e-05
0.00413921 -0.00195617 1e-05
0.00420647 -0.00205946 1e-05
0.00427344 -0.00216293 1e-05
0.00434393 -0.00227252 1e-05
0.00435004 -0.00228208 1e-05
0.00435614 -0.00229164 1e-05
0.00436224 -0.0023012 1e-05
0.00436833 -0.00231076 1e-05
0.0043744 -0.00232031 1e-05
0.00445519 -0.00244725 1e-05
0.00453551 -0.00257449 1e-05
0.00461544 -0.00270198 1e-05
0.00469501 -0.00282969 1e-05
0.0047728 -0.00295497 1e-05
0.00479946 -0.00299806 1e-05
0.00482609 -0.00304116 1e-05
0.0048527 -0.00308428 1e-05
0.00487929 -0.00312741 1e-05
0.00490609 -0.00317086 1e-05
0.00496661 -0.00326901 1e-05
0.00502699 -0.00336726 1e-05
0.00508721 -0.0034656 1e-05
0.0051473 -0.00356402 1e-05
0.00520682 -0.0036616 1e-05
0.00525998 -0.00374881 1e-05
0.0053131 -0.00383604 1e-05
0.00536618 -0.0039233 1e-05
0.00541928 -0.00401055 1e-05
0.00547262 -0.00409807 1e-05
0.00551534 -0.00416808 1e-05
0.00555803 -0.0042381 1e-05
0.00560069 -0.00430815 1e-05
0.00564332 -0.00437821 1e-05
0.00568589 -0.00444809 1e-05
0.00575742 -0.00456544 1e-05
0.005829 -0.00468276 1e-05
0.00590062 -0.00480005 1e-05
0.00597238 -0.00491726 1e-05
0.00604356 -0.00503305 1e-05
0.00607937 -0.00509108 1e-05
0.0061152 -0.00514911 1e-05
0.00615103 -0.00520714 1e-05
0.00618688 -0.00526515 1e-05
0.00622283 -0.00532322 1e-05
0.00630205 -0.00545094 1e-05
0.00638146 -0.00557854 1e-05
0.00646107 -0.00570602 1e-05
0.00654095 -0.00583332 1e-05
0.00661893 -0.00595679 1e-05
0.00666214 -0.00602476 1e-05
0.00670541 -0.0060927 1e-05
0.00674872 -0.0061606 1e-05
0.00679212 -0.00622846 1e-05
0.00683588 -0.00629666 1e-05
0.00690846 -0.00640938 1e-05
0.0069813 -0.00652194 1e-05
0.0070544 -0.00663433 1e-05
0.0071278 -0.00674652 1e-05
0.00719878 -0.00685421 1e-05
0.00726847 -0.00695916 1e-05
0.00733838 -0.00706397 1e-05
0.0074085 -0.00716863 1e-05
0.00747893 -0.00727309 1e-05
0.00755084 -0.00737901 1e-05
0.0075973 -0.00744696 1e-05
0.00764389 -0.00751482 1e-05
0.00769062 -0.00758259 1e-05
0.00773748 -0.00765026 1e-05
0.00778313 -0.00771583 1e-05
0.00790091 -0.0078841 1e-05
0.00801946 -0.00805184 1e-05
0.00813879 -0.00821902 1e-05
0.00825912 -0.00838548 1e-05
0.00837203 -0.00853962 1e-05
0.0083783 -0.00854805 1e-05
0.00838456 -0.00855649 1e-05
0.00839083 -0.00856492 1e-05
0.00839709 -0.00857335 1e-05
0.00840338 -0.00858179 1e-05
0.00851581 -0.00873275 1e-05
0.00862908 -0.00888307 1e-05
0.00874322 -0.00903274 1e-05
0.00885825 -0.00918172 1e-05
0.00896551 -0.0093187 1e-05
0.00902827 -0.0093978 1e-05
0.00909127 -0.00947671 1e-05
0.00915453 -0.00955541 1e-05
0.00921807 -0.00963387 1e-05
0.00928366 -0.00971426 1e-05
0.00933965 -0.00978235 1e-05
0.00939585 -0.00985026 1e-05
0.00945226 -0.009918 1e-05
0.00950888 -0.00998556 1e-05
0.0095636 -0.0100504 1e-05
0.00968415 -0.0101924 1e-05
[...]
POINT_DATA 12278
 FIELD attributes 2
p 1 12278 float
177035 177117 177189 177252 177306 177351
108968 108986 109003 109017 109029 109039
87775 87784.5 87793.9 87803 87812 87820.4
79957.4 79963.7 79969.9 79976 79982.1 79988.1
77166.6 77175.8 77185.1 77194.3 77203.5 77212.7
77584.1 77597.7 77611.3 77624.8 77638.4 77651.9
81117.4 81129.9 81142.1 81154.2 81166.1 81177.9
90944 90963.8 90982.8 91001.1 91018.7 91035.5
117376 117409 117439 117467 117493 117517
215495 215305 215113 214919 214723 214525
177035 173429 169102 164524 162858 158926 155543 152893 144727 134686 129244 123815 119877 119266 118414 112369 106469 102348 101452 100585 99603.2 98621 97194.3 95726 94010.3 93643.8 93276.9 92909.3 92428.3 91930.6 90011.1 88207.2 86693.2 85905.8 85129 84443.2 83778.4 83128.5 82476.7 81642.9 81607.9 81579 81550.9 81522.8 81494 80961.2 80428.9 79897.1 79365.9 78940.8 78514.5 78105.3 77707.6 77332 76966 76616 76265.7 75942 75640.5 75339.4 75049.8 74760.2 74481.6 74218.7 73956.1 73702.4 73448.7 73198.6 72962.3 72726.3 72497.3 72268.4 72037.8 71818.3 71599 71385.4 71171.8 70953.1 70742.2 70531.5 70324.3 70117.4 69904.3 69691.9 69479.7 69267.7 69056.2 68841 68612.9 68385.3 68152.4 67916.7 67672.6 67419.9 67154 66873.7 66560 66247.8 65937.2 65624.1 65623.2 65622.1 65621 65619.9 65618.8 65228.4 64843.7 64464.6 64067.2 63588.1 63072.7 62563.1 61862.9 61089.9 60277.1 60027.5 59788.2 59560 59332.2 59146.1 58591 58033.7 57474.4 57002.6 56535.9 55931.6 55328.8 54789.3 54248.4 53859.2 53802.4 53745.5 53691.4 53644.9 53597.8 53044.9 52484.8 51966.6 51494.6 50945.6 50945.5 50945.4 50945.3 50945.2 50945.1 50517.4 50082.1 49679.1 49343 49073.7 48975.5 48876.8 48806.6 48737.6 48665.7 48476.7 48285.2 48092 47947.1 47814.6 47642.4 47474.3 47335.1 47193.9 47035.2 47028.3 47021.4 47014.4 47008.2 47002.2 46897.3 46785 46670.1 46556.9 46449.9 46414.4 46377.8 46338.3 46298.1 46254.4 46234.1 46213.6 46193 46171.6 46150.3 46124.9 46098 46061 46018.6 45977 45979.3 45981.4 45980.6 45979.8 45978.8 45967.4 45955.6 45943.4 45928.2 45912.9 45922.5 45931.5 45935.9 45939.7 45943.3 45942.4 45941.5 45940.7 45939.6 45938.5 45951.9 45965.3 45977.8 45988.4 45998.5 46008.7 46018.9 46028.7 46038.3 46048 46059.4 46070.7 46081.8 46092.7 46103.5 46121.9 46140.2 46158.6 46177 46195.6 46204 46212.4 46221 46230 46238.9 46261.6 46284.3 46307.6 46331.4 46355.2 46362.4 46369.6 46377.2 46385.3 46393.4 46416.6 46440 46464.1 46489.4 46514.1 46522.8 46531.6 46541 46551 46561.1 46580.8 46600.7 46621.2 46643.1 46664.5 46678.1 46691.7 46707.1 46723.1 46739.5 46751.2 46763 46774.9 46787.8 46800.4 46822.2 46844.2 46869.6 46895.7 46921.3 46922.2 46923.1 46924.2 46925.3 46926.4 46947.8 46969.3 46991.3 47015.4 47038 47047.2 47056.4 47067.1 47077.8 47088.8 47098.8 47108.8 47118.9 47129.7 47140.1 47157.2 47174.5 47193.4 47213 47232.3 47234.6 47236.9 47239.5 47242.1 47244.8 47259.4 47274.1 47288.9 47304.9 47320 47333.4 47347.2 47362.3 47377.5 47393.8 47394.3 47394.8 47395.2 47395.7 47396.2 47410.6 47425.3 47440.1 47456 47471.2 47483.1 47495.7 47509.2 47522.8 47535.9 47536.2 47536.5 47536.9 47537.2 47537.6 47549.7 47561.8 47574 47586.9 47599.7 47610 47620.3 47631.9 47644 47655.9 47659.6 47663.7 47668 47672.3 47676.9 47683 47689.2 47695.4 47701.9 47708.6 47717.4 47726.4 47736.1 47746.9 47757.3 47764.9 47773 47781.9 47790.7 47799.8 47801.7 47803.8 47806.1 47808.3 47810.7 47816.3 47821.9 47827.5 47833.3 47839.6 47845.8 47852.3 47859.1 47867.2 47875 47880 47885 47891.2 47897.7 47904.4 47907.8 47912.2 47916.7 47921.1 47926.1 47926.5 47927 47927.4 47927.9 47928.4 47932.4 47936.5 47940.6 47944.7 47949.7 47952 47954.4 47957.3 47961.2 47965 47966.1 47967.1 47969 47971.7 47974.3 47974.2 47974.7 47975.5 47976.3 47977.6 47976.8 47976.5 47976.1 47975.8 47975.4 47975.3 47975.3 47975.3 47975.2 47975.3 47973.8 47972.4 47971 47969.5 47968.7 47965.5 47962.8 47960.2 47957.9 47956 47951.6 47947.2 47943.4 47940.3 47937.2 47931.6 47926 47921 47916.6 47912.3 47905.6 47899 47892.8 47887 47881.5 47873.7 47866.2 47858.9 47851.6 47844.9 47836.1 47827.7 47819.2 47810.8 47802.6 47794.3 47786.2 47778.1 47770 47760.6 47759.4 47758.3 47757.1 47756 47754.8 47744.3 47733.8 47723.3 47712.7 47702.4 47690.5 47679 47667.4 47655.9 47644.5 47631.5 47618.9 47606.4 47593.8 47581.5 47567.5 47553.8 47540.3 47526.8 47513.5 47498.5 47483.8 47469.3 47454.9 47440.6 47424.9 47409.1 47393.7 47378.5 47363.2 47346.6 47330 47313.7 47297.6 47281.4 47264 47246.6 47229.4 47212.4 47195.4 47177.3 47159.2 47141.1 47123.3 47105.5 47086.6 47067.8 47048.9 47030.3 47011.8 46992.2 46972.7 46953.1 46933.7 46914.5 46894.3 46874.1 46853.8 46833.7 46813.8 46793 46772.2 46751.3 46730.5 46709.9 46688.6 46667.1 46645.7 46624.2 46603 46581.1 46559.1 46537.1 46515.1 46493.3 46470.9 46448.4 46425.8 46403.2 46380.9 46358 46335 46311.9 46288.9 46266 46242.7 46219.1 46195.6 46172.1 46148.8 46125 46101 46077.1 46053.1 46029.3 46005.1 45980.7 45956.4 45932 45907.8 45883.1 45858.4 45833.7 45809 45784.3 45759.3 45734.2 45709.1 45684 45659 45633.7 45608.2 45582.8 45557.4 45532 45506.3 45480.6 45454.8 45429.1 45403.4 45377.4 45351.3 45325.3 45299.3 45273.2 45247 45220.6 45194.3 45168 45141.7 45115.2 45088.6 45062 45035.4 45008.8 44982 44955.2 44928.3 44901.5 44874.6 44847.6 44820.5 44793.4 44766.3 44739.3 44712 44684.7 44657.4 44630.1 44602.8 44575.3 44547.7 44520.2 44492.7 44465.2 44437.4 44409.7 44382 44354.2 44326.5 44298.6 44270.7 44242.7 44214.8 44186.8 44158.7 44130.6 44102.5 44074.4 44046.2 44017.9 43989.6 43961.3 43933 43904.7 43876.2 43847.7 43819.2 43790.7 43762.2 43733.5 43704.8 43676.2 43647.5 43618.8 43590 43561.1 43532.3 43503.4 43474.5 43445.5 43416.5 43387.5 43358.4 43329.4 43300.2 43271 43241.8 43212.6 43183.4 43154.1 43124.7 43095.3 43066 43036.6 43007.1 42977.5 42948 42918.4 42888.9 42859.2 42829.5 42799.8 42770 42740.3 42710.5 42680.6 42650.7 42620.8 42590.9 42560.9 42530.8 42500.7 42470.7 42440.6 42410.4 42380.2 42349.9 42319.7 42289.5 42259.1 42228.7 42198.3 42167.8 42137.4 42106.9 42076.3 42045.7 42015.1 41984.5 41953.7 41923 41892.2 41861.4 41830.6 41799.7 41768.7 41737.8 41706.8 41675.8 41644.7 41613.6 41582.4 41551.3 41520.1 41488.8 41457.5 41426.2 41394.8 41363.5 41332 41300.4 41268.9 41237.4 41205.8 41174.1 41142.4 41110.7 41078.9 41047.2 41015.3 40983.4 40951.4 40919.5 40887.5 40855.4 40823.3 40791.2 40759 40726.8 40694.5 40662.2 40629.8 40597.5 40565.1 40532.6 40500 40467.5 40434.9 40402.3 40369.6 40336.8 40304 40271.3 40238.4 40205.5 40172.5 40139.5 40106.5 40073.4 40040.3 40007 39973.8 39940.6 39907.3 39873.9 39840.5 39807 39773.5 39740 39706.4 39672.7 39639 39605.3 39571.6 39537.7 39503.8 39469.9 39436 39402 39367.9 39333.7 39299.5 39265.4 39231.1 39196.8 39162.4 39128 39093.6 39059.1 39024.5 38989.8 38955.2 38920.5 38885.8 38851 38816 38781.1 38746.2 38711.2 38676.1 38641 38605.8 38570.6 38535.4 38500.1 38464.6 38429.2 38393.8 38358.3 38322.7 38287 38251.3 38215.6 38179.8 38144 38108 38072.1 38036.1 38000.1 37963.9 37927.7 37891.5 37855.3 37818.9 37782.5 37746 37709.6 37673 37636.5 37599.8 37563 37526.2 37489.5 37452.6 37415.6 37378.6 37341.6 37304.5 37267.4 37230.1 37192.8 37155.5 37118.1 37080.7 37043.2 37005.6 36967.9 36930.3 36892.6 36854.8 36816.9 36779 36741.1 36703.1 36665 36626.8 36588.6 36550.4 36512.1 36473.7 36435.2 36396.7 36358.2 36319.7 36280.9 36242.2 36203.4 36164.6 36125.7 36086.7 36047.7 36008.6 35969.5 35930.3 35891 35851.6 35812.3 35772.8 35733.4 35693.7 35654.1 35614.4 35574.7 35534.9 35495 35455 35415 35375 35334.9 35294.7 35254.4 35214.1 35173.7 35133.3 35092.8 35052.2 35011.6 34970.9 34930.2 34889.4 34848.5 34807.5 34766.5 34725.5 34684.4 34643.2 34601.9 34560.6 34519.2 34477.7 34436.2 34394.6 34353 34311.4 34269.5 34227.7 34185.8 34143.8 34101.8 34059.7 34017.5 33975.3 33933 33890.7 33848.2 33805.7 33763.2 33720.6 33677.9 33635.1 33592.3 33549.4 33506.5 33463.5 33420.3 33377.2 33334 33290.7 33247.4 33203.9 33160.4 33116.9 33073.2 33029.6 32985.8 32942 32898.1 32854.1 32810.1 32765.9 32721.8 32677.5 32633.2 32588.9 32544.4 32499.9 32455.3 32410.6 32366 32321.1 32276.3 32231.4 32186.3 32141.3 32096.1 32050.9 32005.6 31960.3 31914.9 31869.4 31823.8 31778.2 31732.5 31686.8 31640.8 31594.9 31548.9 31502.9 31456.8 31410.5 31364.3 31317.9 31271.5 31225.1 31178.4 31131.8 31085.1 31038.3 30991.5 30944.5 30897.5 30850.5 30803.3 30756.2 30708.8 30661.4 30614 30566.5 30519 30471.2 30423.5 30375.7 30327.8 30279.9 30231.8 30183.7 30135.5 30087.3 30039 29990.5 29942 29893.5 29844.8 29796.2 29747.3 29698.5 29649.5 29600.5 29551.5 29502.3 29453 29403.7 29354.3 29304.9 29255.3 29205.6 29155.9 29106.1 29056.3 29006.3 28956.3 28906.2 28856 28805.8 28755.4 28705 28654.5 28603.9 28553.4 28502.5 28451.7 28400.8 28349.8 28298.9 28247.7 28196.4 28145.1 28093.8 28042.4 27990.8 27939.1 27887.4 27835.6 27783.9 27731.8 27679.8 27627.7 27575.5 27523.3 27470.8 27418.3 27365.8 27313.2 27260.6 27207.7 27154.8 27101.9 27048.8 26995.8 26942.5 26889.2 26835.8 26782.4 26728.9 26675.2 26621.4 26567.6 26513.8 26459.9 26405.7 26351.5 26297.3 26243.1 26188.8 26134.2 26079.6 26025 25970.3 25915.6 25860.6 25805.6 25750.6 25695.6 25640.5 25585.2 25529.8 25474.5 25419.1 25363.7 25308 25252.4 25196.8 25141.2 25085.5 25029.6 24973.8 24918.1 24862.4 24806.6 24750.7 24695 24639.3 24583.6 24527.9 24472.2 24416.9 24361.8 24306.7 24252 24197.3 24142.4 24087.4 24032.4 23977 23922.3 23873.6 23825 23776.4 23732.6 23683.5 23618.1 23552.6 23487.1 23412.6 23361.4 23331.1 23301 23271.2 23257 23252.9 23248.7 23244.5 23240.4 23238.8 23236.2 23230.9 23225.7 23220.4 23214.7 23187.7 23160.5 23133.1 23105.4 23061.8 22985.9 22916.9 22848 22779.1 22722.8 22671.7 22615.4 22559.1 22502.7 22440 22372.3 22304.2 22236.1 22168 22099.5 22028.2 21955 21881.7 21808.5 21733.2 21654.9 21575.1 21495.3 21415.5 21334.1 21249.8 21163.7 21077.5 20991.4 20903.4 20812.4 20719.5 20626.5 20533.5 20438.7 20340.6 20240.4 20140.1 20039.7 19937.4 19831.5 19723.3 19615 19506.6 19396.1 19281.8 19164.7 19047.5 18930.2 18810.4 18686.4 18559.7 18432.8 18305.7 18176.3 18042.2 17904.3 17766.1 17627.8 17485.9 17338.9 17189.3 17039.4 16889.4 16737.2 16579.4 16414.8 16249.9 16084.7 15913.2 15735.5 15557.3 15379.2 15201 15022.9 14838.3 14638.8 14438.4 14237.3 14022.1 13798.9 13585.8 13373.3 13161.3 12960 12751.1 12503.6 12253.9 12002 11712.7 11412.5 11157.2 10904.7 10654.9 10450.2 10237.6 9921.63 9598.05 9265.88 8833.2 8384.21 8071.44 7773.83 7494.26 7349.15 7198.12 6801.68 6357.21 5838.95 5089.58 4311.3 3779.1 3398.18 3250.88 3316.62 3382.93 3362.08 2777.12 1388.15 0