# vtk DataFile Version 2.0
track0
ASCII
DATASET POLYDATA
POINTS 12278 float
-0.0205 0.001 1e-05
-0.02052 0.000999216 1e-05
-0.02054 0.000998592 1e-05
-0.02056 0.000998126 1e-05
-0.02058 0.000997818 1e-05
-0.0206 0.000997665 1e-05
-0.0205 0.00367778 1e-05
-0.02052 0.00367703 1e-05
-0.02054 0.00367643 1e-05
-0.02056 0.00367599 1e-05
-0.02058 0.00367569 1e-05
-0.0206 0.00367554 1e-05
-0.0205 0.00635556 1e-05
-0.02052 0.00635527 1e-05
-0.02054 0.00635505 1e-05
-0.02056 0.00635488 1e-05
-0.02058 0.00635476 1e-05
-0.0206 0.00635471 1e-05
-0.0205 0.00903333 1e-05
-0.02052 0.00903311 1e-05
-0.02054 0.00903293 1e-05
-0.02056 0.0090328 1e-05
-0.02058 0.00903271 1e-05
-0.0206 0.00903266 1e-05
-0.0205 0.0117111 1e-05
-0.02052 0.0117111 1e-05
-0.02054 0.011711 1e-05
-0.02056 0.011711 1e-05
-0.02058 0.011711 1e-05
-0.0206 0.011711 1e-05
-0.0205 0.0143889 1e-05
-0.02052 0.014389 1e-05
-0.02054 0.014389 1e-05
-0.02056 0.0143891 1e-05
-0.02058 0.0143891 1e-05
-0.0206 0.0143891 1e-05
-0.0205 0.0170667 1e-05
-0.02052 0.017067 1e-05
-0.02054 0.0170672 1e-05
-0.02056 0.0170674 1e-05
-0.02058 0.0170675 1e-05
-0.0206 0.0170676 1e-05
-0.0205 0.0197444 1e-05
-0.02052 0.019745 1e-05
-0.02054 0.0197454 1e-05
-0.02056 0.0197457 1e-05
-0.02058 0.0197459 1e-05
-0.0206 0.019746 1e-05
-0.0205 0.0224222 1e-05
-0.02052 0.022423 1e-05
-0.02054 0.0224236 1e-05
-0.02056 0.0224241 1e-05
-0.02058 0.0224244 1e-05
-0.0206 0.0224245 1e-05
-0.0205 0.0251 1e-05
-0.02052 0.0251003 1e-05
-0.02054 0.0251005 1e-05
-0.02056 0.0251007 1e-05
-0.02058 0.0251008 1e-05
-0.0206 0.0251008 1e-05
-0.0205 0.001 1e-05
-0.0203632 0.00100536 1e-05
-0.0202266 0.00101331 1e-05
-0.0200901 0.00102296 1e-05
-0.0200427 0.00102682 1e-05
-0.0198376 0.00104418 1e-05
-0.0196338 0.00107322 1e-05
-0.0194327 0.00111734 1e-05
-0.0192368 0.00118024 1e-05
-0.0190172 0.00124951 1e-05
-0.0189002 0.00128348 1e-05
-0.0187827 0.00131598 1e-05
-0.0186649 0.001347 1e-05
-0.0185469 0.001377 1e-05
-0.0183807 0.00141936 1e-05
-0.0182041 0.00146458 1e-05
-0.0180267 0.00150692 1e-05
-0.0178487 0.0015464 1e-05
-0.0176703 0.00158389 1e-05
-0.0174976 0.00161991 1e-05
-0.0172846 0.00166394 1e-05
-0.0170715 0.00170741 1e-05
-0.0168583 0.00175029 1e-05
-0.0166449 0.00179219 1e-05
-0.0163945 0.00184007 1e-05
-0.0163234 0.00185324 1e-05
-0.0162522 0.00186629 1e-05
-0.016181 0.00187921 1e-05
-0.0161097 0.00189201 1e-05
-0.0160387 0.0019046 1e-05
-0.0157586 0.0019535 1e-05
-0.0154779 0.00199931 1e-05
-0.0151968 0.00204225 1e-05
-0.0149154 0.00208283 1e-05
-0.0146381 0.00212134 1e-05
-0.0143838 0.00215527 1e-05
-0.0141293 0.00218766 1e-05
-0.0138747 0.00221855 1e-05
-0.0136198 0.00224797 1e-05
-0.0132934 0.00228369 1e-05
-0.0132791 0.00228515 1e-05
-0.0132648 0.0022866 1e-05
-0.0132504 0.00228805 1e-05
-0.0132361 0.0022895 1e-05
-0.0132213 0.00229098 1e-05
-0.0129776 0.00231543 1e-05
-0.0127337 0.00233865 1e-05
-0.0124897 0.00236061 1e-05
-0.0122456 0.00238129 1e-05
-0.0120025 0.00240058 1e-05
-0.0117547 0.00241909 1e-05
-0.0115067 0.00243627 1e-05
-0.0112587 0.00245231 1e-05
-0.0110106 0.00246734 1e-05
-0.0107632 0.00248136 1e-05
-0.0105252 0.00249391 1e-05
-0.0102872 0.00250547 1e-05
-0.0100491 0.00251602 1e-05
-0.00981105 0.00252575 1e-05
-0.00957337 0.00253471 1e-05
-0.00934491 0.00254261 1e-05
-0.00911643 0.00254974 1e-05
-0.00888792 0.00255611 1e-05
-0.0086594 0.00256172 1e-05
-0.00843108 0.00256669 1e-05
-0.00821175 0.00257085 1e-05
-0.00799241 0.00257439 1e-05
-0.00777306 0.00257731 1e-05
-0.0075537 0.00257953 1e-05
-0.00733443 0.00258115 1e-05
-0.00712387 0.00258213 1e-05
-0.0069133 0.00258256 1e-05
-0.00670273 0.00258244 1e-05
-0.00649216 0.00258163 1e-05
-0.0062816 0.00258019 1e-05
-0.00607944 0.0025782 1e-05
-0.0058773 0.00257567 1e-05
-0.00567516 0.00257258 1e-05
-0.00547303 0.00256876 1e-05
-0.00527083 0.00256421 1e-05
-0.00507675 0.00255914 1e-05
-0.00488269 0.00255345 1e-05
-0.00468865 0.00254713 1e-05
-0.00449464 0.00254 1e-05
-0.00430044 0.00253193 1e-05
-0.00411412 0.00252332 1e-05
-0.00392784 0.00251391 1e-05
-0.00374159 0.00250372 1e-05
-0.0035554 0.00249258 1e-05
-0.00336883 0.00248019 1e-05
-0.00318995 0.00246715 1e-05
-0.00301115 0.00245303 1e-05
-0.00283245 0.00243779 1e-05
-0.00265386 0.00242125 1e-05
-0.00247443 0.00240319 1e-05
-0.0023027 0.0023843 1e-05
-0.00213114 0.00236389 1e-05
-0.00195982 0.00234159 1e-05
-0.00178875 0.00231744 1e-05
-0.00161577 0.00229111 1e-05
-0.00161561 0.00229109 1e-05
-0.00161544 0.00229106 1e-05
-0.00161528 0.00229103 1e-05
-0.00161511 0.002291 1e-05
-0.00161495 0.00229098 1e-05
-0.00145024 0.00226408 1e-05
-0.00128594 0.00223483 1e-05
-0.00112206 0.00220329 1e-05
-0.000958624 0.00216951 1e-05
-0.000791418 0.00213243 1e-05
-0.000633135 0.00209432 1e-05
-0.000475556 0.00205339 1e-05
-0.000318719 0.00200971 1e-05
-0.000162834 0.00196275 1e-05
0 0.0019096 1e-05
3.7386e-05 0.00189638 1e-05
7.46718e-05 0.00188289 1e-05
0.000111859 0.00186912 1e-05
0.000148948 0.0018551 1e-05
0.000179287 0.00184338 1e-05
0.000249107 0.00181596 1e-05
0.000318517 0.00178751 1e-05
0.000387502 0.00175805 1e-05
0.000456047 0.00172758 1e-05
0.000528387 0.00169423 1e-05
0.000634886 0.00164325 1e-05
0.000740278 0.00159002 1e-05
0.00084451 0.00153456 1e-05
0.000947621 0.00147704 1e-05
0.00102007 0.00143469 1e-05
0.00102823 0.00142975 1e-05
0.00103638 0.00142481 1e-05
0.00104453 0.00141984 1e-05
0.00105266 0.00141486 1e-05
0.00106088 0.00140981 1e-05
0.00116821 0.00134363 1e-05
0.00127404 0.00127508 1e-05
0.00137827 0.00120413 1e-05
0.00148099 0.001131 1e-05
0.00159688 0.00104511 1e-05
0.001597 0.00104501 1e-05
0.00159713 0.00104491 1e-05
0.00159726 0.00104481 1e-05
0.00159739 0.00104471 1e-05
0.00159752 0.00104461 1e-05
0.00169223 0.000971014 1e-05
0.00178553 0.000895648 1e-05
0.00187736 0.000818483 1e-05
0.00196776 0.000739662 1e-05
0.00203818 0.000676368 1e-05
0.00205821 0.000657911 1e-05
0.00207815 0.000639365 1e-05
0.00209802 0.00062073 1e-05
0.00211782 0.000602032 1e-05
0.00213833 0.000582554 1e-05
0.0021915 0.000531702 1e-05
0.00224418 0.000480332 1e-05
0.00229633 0.000428437 1e-05
0.00234796 0.000376011 1e-05
0.00239428 0.000328256 1e-05
0.00245209 0.000267832 1e-05
0.00250927 0.00020681 1e-05
0.00256582 0.000145205 1e-05
0.00262186 8.31348e-05 1e-05
0.00268334 1.38603e-05 1e-05
0.00268575 1.10882e-05 1e-05
0.00268816 8.31513e-06 1e-05
0.00269057 5.54098e-06 1e-05
0.00269298 2.76579e-06 1e-05
0.00269538 0 1e-05
0.00275927 -7.37369e-05 1e-05
0.00282255 -0.000148005 1e-05
0.00288519 -0.000222814 1e-05
0.00294717 -0.000298174 1e-05
0.00300424 -0.000368654 1e-05
0.00304991 -0.00042589 1e-05
0.00309527 -0.000483371 1e-05
0.00314032 -0.000541093 1e-05
0.00318512 -0.00059901 1e-05
0.00323259 -0.000660935 1e-05
0.00325067 -0.000684767 1e-05
0.0032687 -0.000708639 1e-05
0.00328668 -0.000732551 1e-05
0.0033046 -0.000756503 1e-05
0.00332218 -0.000780091 1e-05
0.00339032 -0.000871878 1e-05
0.00345786 -0.000964108 1e-05
0.00352478 -0.00105679 1e-05
0.00359115 -0.00114986 1e-05
0.00365401 -0.00123896 1e-05
0.00368043 -0.0012768 1e-05
0.00370678 -0.0013147 1e-05
0.00373304 -0.00135265 1e-05
0.00375926 -0.00139063 1e-05
0.00378611 -0.00142965 1e-05
0.00383012 -0.00149381 1e-05
0.00387392 -0.00155812 1e-05
0.0039175 -0.00162258 1e-05
0.00396086 -0.0016872 1e-05
0.00400304 -0.00175044 1e-05
0.00407122 -0.00185323 1e-05
0.00413898 -0.00195629 1e-05
0.00420631 -0.00205964 1e-05
0.00427336 -0.00216317 1e-05
0.00434393 -0.0022728 1e-05
0.00435 -0.0022823 1e-05
0.00435607 -0.00229181 1e-05
0.00436214 -0.00230131 1e-05
0.0043682 -0.00231082 1e-05
0.00437424 -0.0023203 1e-05
0.00445508 -0.00244725 1e-05
0.00453547 -0.00257449 1e-05
0.00461547 -0.00270197 1e-05
0.0046951 -0.00282968 1e-05
0.00477297 -0.00295498 1e-05
0.00479959 -0.00299797 1e-05
0.00482619 -0.00304098 1e-05
0.00485276 -0.00308401 1e-05
0.00487933 -0.00312704 1e-05
0.00490609 -0.0031704 1e-05
0.00496673 -0.00326864 1e-05
0.00502723 -0.00336698 1e-05
0.00508757 -0.00346541 1e-05
0.00514778 -0.00356393 1e-05
0.00520743 -0.00366161 1e-05
0.00526047 -0.00374852 1e-05
0.00531347 -0.00383545 1e-05
0.00536643 -0.00392241 1e-05
0.00541941 -0.00400935 1e-05
0.00547262 -0.00409655 1e-05
0.00551559 -0.00416687 1e-05
0.00555852 -0.0042372 1e-05
0.00560142 -0.00430755 1e-05
0.0056443 -0.00437792 1e-05
0.00568712 -0.00444811 1e-05
0.0057584 -0.00456489 1e-05
0.00582974 -0.00468164 1e-05
0.00590112 -0.00479837 1e-05
0.00597263 -0.00491501 1e-05
0.00604356 -0.00503022 1e-05
0.00607978 -0.00508882 1e-05
0.00611601 -0.00514743 1e-05
0.00615225 -0.00520602 1e-05
0.00618852 -0.00526461 1e-05
0.00622489 -0.00532326 1e-05
0.0063037 -0.0054501 1e-05
0.00638269 -0.00557683 1e-05
0.00646189 -0.00570344 1e-05
0.00654136 -0.00582987 1e-05
0.00661893 -0.00595249 1e-05
0.00666277 -0.00602133 1e-05
0.00670666 -0.00609014 1e-05
0.0067506 -0.00615891 1e-05
0.00679463 -0.00622763 1e-05
0.00683903 -0.00629671 1e-05
0.00691098 -0.00640825 1e-05
0.00698318 -0.00651962 1e-05
0.00705565 -0.00663082 1e-05
0.0071284 -0.00674184 1e-05
0.00719878 -0.00684842 1e-05
0.00726936 -0.00695454 1e-05
0.00734017 -0.00706052 1e-05
0.0074112 -0.00716634 1e-05
0.00748254 -0.00727196 1e-05
0.0075554 -0.00737908 1e-05
0.00760095 -0.00744556 1e-05
0.00764662 -0.00751196 1e-05
0.00769242 -0.00757826 1e-05
0.00773836 -0.00764448 1e-05
0.00778313 -0.00770868 1e-05
0.00790091 -0.00787669 1e-05
0.00801946 -0.00804417 1e-05
0.00813878 -0.00821109 1e-05
0.0082591 -0.00837729 1e-05
0.00837203 -0.00853123 1e-05
0.00837956 -0.00854136 1e-05
0.0083871 -0.00855149 1e-05
0.00839464 -0.00856161 1e-05
0.00840218 -0.00857174 1e-05
0.00840974 -0.00858188 1e-05
0.0085209 -0.00873081 1e-05
0.00863288 -0.00887911 1e-05
0.0087457 -0.00902677 1e-05
0.00885939 -0.00917377 1e-05
0.00896551 -0.0093091 1e-05
0.00902989 -0.00939014 1e-05
0.00909453 -0.00947097 1e-05
0.00915943 -0.0095516 1e-05
0.00922464 -0.00963197 1e-05
0.009292 -0.00971437 1e-05
0.00934632 -0.00978029 1e-05
0.00940084 -0.00984604 1e-05
0.00945555 -0.00991163 1e-05
0.00951046 -0.00997705 1e-05
0.0095636 -0.01004 1e-05
0.00968415 -0.0101817 1e-05
[...]
POINT_DATA 12278
 FIELD attributes 2
p 1 12278 float
177017 177099 177172 177235 177289 177333
108951 108969 108985 108999 109011 109022
87757.2 87766.7 87776.1 87785.3 87794.2 87802.6
79939.5 79945.8 79952 79958.1 79964.2 79970.2
77148.6 77157.8 77167 77176.3 77185.5 77194.7
77566 77579.6 77593.1 77606.7 77620.3 77633.8
81099.2 81111.6 81123.9 81136 81147.9 81159.6
90925.7 90945.4 90964.4 90982.7 91000.3 91017.2
117358 117390 117421 117449 117475 117499
215476 215287 215095 214901 214705 214506
177017 173412 169085 164506 162840 158908 155526 152875 144710 134669 129226 123797 119859 119248 118396 112351 106451 102330 101435 100568 99585.5 98603.3 97176.6 95708.3 93992.7 93626.2 93259.2 92891.7 92410.7 91913 89993.4 88189.5 86675.5 85888.2 85111.4 84425.6 83760.8 83111 82459.3 81625.3 81590.4 81561.5 81533.4 81505.4 81476.6 80943.8 80411.5 79879.7 79348.4 78923.3 78497.1 78087.9 77690.2 77314.6 76948.7 76598.7 76248.4 75924.7 75623.2 75322.1 75032.6 74743 74464.5 74201.6 73939 73685.3 73431.6 73181.6 72945.4 72709.3 72480.4 72251.5 72021 71801.5 71582.3 71368.6 71155.1 70936.5 70725.6 70514.9 70307.8 70100.8 69887.9 69675.4 69463.3 69251.4 69039.9 68824.7 68596.7 68369.1 68136.2 67900.5 67656.4 67403.8 67137.9 66857.6 66543.9 66231.7 65921.1 65608 65607.7 65607.3 65606.8 65606.4 65605.9 65214.9 64829.5 64449.8 64051.8 63572 63056.5 62546.8 61845.9 61072.8 60259.7 60011.2 59773 59545.7 59319 59133.5 58577 58018.2 57457.4 56984.5 56516.5 55911.9 55309.2 54769.5 54228.4 53843.1 53785.2 53727.2 53672.1 53624.7 53576.7 53023.6 52463.3 51945.3 51473 50926.8 50926 50925.2 50924.5 50923.8 50923.2 50495.9 50061.2 49658.6 49323 49053.9 48954.9 48855.4 48784.7 48715.2 48642.7 48454.1 48263.2 48070.5 47926 47793.8 47621.2 47452.7 47313.1 47171.5 47012.3 47005.8 46999.3 46992.8 46986.9 46981.3 46876.1 46763.8 46649 46535.8 46428.8 46393.3 46356.5 46317 46276.7 46232.9 46212.8 46192.4 46172 46150.8 46129.6 46104.3 46077.5 46040.5 45998.1 45956.6 45959 45961.1 45960.4 45959.6 45958.6 45947.3 45935.6 45923.5 45908.4 45893.2 45902.9 45912 45916.5 45920.5 45924.2 45923.3 45922.5 45921.6 45920.6 45919.5 45933 45946.6 45959.2 45969.9 45980.2 45990.5 46000.7 46010.5 46020.2 46029.9 46041.5 46052.8 46064 46075.1 46086 46104.4 46122.8 46141.3 46159.7 46178.3 46186.9 46195.4 46204.1 46213.2 46222.3 46245 46267.7 46291 46314.9 46338.7 46346 46353.4 46361.2 46369.4 46377.7 46400.9 46424.2 46448.3 46473.5 46498.3 46507.2 46516.1 46525.7 46535.9 46546.2 46565.8 46585.6 46606 46627.9 46649.1 46662.9 46676.9 46692.5 46708.8 46725.4 46737 46748.6 46760.3 46773 46785.4 46807.3 46829.4 46854.9 46881 46906.9 46908 46909.1 46910.5 46911.8 46913.2 46934.3 46955.8 46977.5 47001.4 47023.8 47033.3 47042.9 47053.8 47064.9 47076.3 47086 47095.7 47105.5 47116 47126.2 47143.3 47160.7 47179.6 47199.4 47218.8 47221.3 47223.9 47226.8 47229.7 47232.7 47247 47261.5 47276.1 47291.7 47306.6 47320.3 47334.5 47349.9 47365.4 47382.2 47382.4 47382.5 47382.6 47382.7 47382.9 47397.4 47412.2 47427 47442.9 47458.1 47470.1 47482.7 47496.3 47510 47523.1 47523.6 47524.2 47524.9 47525.5 47526.2 47538 47549.9 47561.8 47574.5 47587 47597.3 47607.6 47619.2 47631.4 47643.4 47647.4 47651.7 47656.3 47661 47665.8 47671.7 47677.6 47683.5 47689.7 47696.1 47704.9 47714 47723.7 47734.6 47745.1 47752.7 47760.8 47769.7 47778.6 47787.8 47789.8 47792.2 47794.7 47797.2 47799.8 47805.2 47810.6 47816 47821.6 47827.7 47833.9 47840.4 47847.3 47855.4 47863.2 47868.2 47873.3 47879.5 47886.2 47892.9 47896.5 47901.1 47905.7 47910.4 47915.6 47915.9 47916.1 47916.4 47916.7 47917 47921.1 47925.3 47929.4 47933.5 47938.6 47940.9 47943.4 47946.3 47950.2 47954.1 47955.2 47956.3 47958.2 47961 47963.7 47963.6 47964.1 47965 47965.8 47967.3 47966.4 47966.1 47965.8 47965.5 47965.2 47965.1 47965.1 47965.1 47965.1 47965.1 47963.7 47962.4 47961 47959.6 47958.8 47955.6 47953.1 47950.5 47948.2 47946.4 47942 47937.7 47934 47930.9 47927.8 47922.3 47916.8 47911.8 47907.5 47903.3 47896.6 47890 47883.9 47878.2 47872.7 47865 47857.6 47850.3 47843.1 47836.4 47827.7 47819.3 47810.9 47802.5 47794.4 47785.8 47777.4 47769 47760.6 47750.7 47750 47749.2 47748.4 47747.6 47746.9 47736.4 47726 47715.5 47705 47694.7 47682.9 47671.4 47659.9 47648.4 47637.1 47624.1 47611.6 47599.1 47586.6 47574.3 47560.4 47546.7 47533.2 47519.8 47506.5 47491.7 47476.9 47462.5 47448.2 47434 47418.2 47402.5 47387.2 47372 47356.8 47340.2 47323.7 47307.4 47291.3 47275.2 47257.9 47240.5 47223.3 47206.4 47189.5 47171.4 47153.3 47135.2 47117.5 47099.7 47080.9 47062.1 47043.2 47024.7 47006.2 46986.7 46967.2 46947.6 46928.3 46909.1 46889 46868.8 46848.6 46828.5 46808.6 46787.8 46767 46746.2 46725.4 46704.9 46683.6 46662.2 46640.7 46619.3 46598.2 46576.3 46554.3 46532.3 46510.3 46488.6 46466.2 46443.7 46421.2 46398.7 46376.3 46353.5 46330.5 46307.5 46284.4 46261.6 46238.3 46214.8 46191.3 46167.8 46144.5 46120.7 46096.8 46072.9 46048.9 46025.1 46000.9 45976.6 45952.3 45928 45903.7 45879.1 45854.4 45829.7 45805 45780.4 45755.4 45730.3 45705.3 45680.2 45655.2 45629.9 45604.5 45579.1 45553.7 45528.3 45502.6 45476.9 45451.2 45425.5 45399.8 45373.8 45347.8 45321.8 45295.8 45269.8 45243.5 45217.2 45190.9 45164.6 45138.3 45111.8 45085.2 45058.6 45032.1 45005.5 44978.7 44951.9 44925.1 44898.3 44871.4 44844.4 44817.4 44790.3 44763.2 44736.2 44708.9 44681.6 44654.3 44627 44599.8 44572.3 44544.8 44517.3 44489.8 44462.2 44434.6 44406.8 44379.1 44351.4 44323.7 44295.8 44267.9 44240 44212 44184.1 44156 44127.9 44099.8 44071.7 44043.6 44015.3 43987 43958.7 43930.4 43902.1 43873.7 43845.2 43816.7 43788.2 43759.7 43731.1 43702.4 43673.8 43645.1 43616.5 43587.6 43558.8 43530 43501.1 43472.3 43443.3 43414.3 43385.3 43356.3 43327.3 43298.1 43268.9 43239.7 43210.6 43181.4 43152 43122.7 43093.3 43064 43034.6 43005.1 42975.6 42946.1 42916.6 42887 42857.4 42827.7 42798 42768.3 42738.6 42708.7 42678.9 42649 42619.1 42589.2 42559.2 42529.2 42499.1 42469.1 42439.1 42408.9 42378.7 42348.4 42318.2 42288 42257.6 42227.2 42196.9 42166.5 42136 42105.5 42074.9 42044.4 42013.8 41983.2 41952.5 41921.7 41891 41860.2 41829.4 41798.5 41767.6 41736.7 41705.7 41674.8 41643.7 41612.6 41581.4 41550.3 41519.1 41487.9 41456.5 41425.2 41393.9 41362.6 41331.1 41299.6 41268.1 41236.5 41205 41173.3 41141.6 41109.9 41078.2 41046.4 41014.6 40982.7 40950.7 40918.8 40886.9 40854.8 40822.7 40790.6 40758.4 40726.3 40694 40661.7 40629.3 40597 40564.6 40532.1 40499.6 40467 40434.5 40401.9 40369.2 40336.4 40303.7 40270.9 40238.1 40205.1 40172.2 40139.2 40106.2 40073.1 40040 40006.8 39973.6 39940.4 39907.1 39873.7 39840.3 39806.8 39773.4 39739.9 39706.3 39672.6 39638.9 39605.2 39571.5 39537.6 39503.7 39469.8 39435.9 39401.9 39367.8 39333.7 39299.5 39265.4 39231.1 39196.8 39162.4 39128 39093.6 39059.1 39024.5 38989.9 38955.2 38920.6 38885.9 38851 38816.1 38781.2 38746.3 38711.3 38676.3 38641.1 38605.9 38570.8 38535.5 38500.2 38464.8 38429.4 38393.9 38358.4 38322.8 38287.2 38251.5 38215.8 38180 38144.2 38108.2 38072.3 38036.3 38000.3 37964.1 37927.9 37891.7 37855.5 37819.2 37782.8 37746.3 37709.8 37673.3 37636.7 37600 37563.3 37526.5 37489.7 37452.9 37415.9 37378.9 37341.8 37304.8 37267.6 37230.4 37193.1 37155.7 37118.4 37081 37043.4 37005.8 36968.2 36930.6 36892.9 36855.1 36817.2 36779.3 36741.4 36703.4 36665.3 36627.1 36588.9 36550.7 36512.4 36474 36435.5 36397 36358.5 36319.9 36281.2 36242.5 36203.7 36164.9 36126 36087 36048 36008.9 35969.7 35930.6 35891.3 35851.9 35812.5 35773.1 35733.6 35694 35654.4 35614.7 35574.9 35535.2 35495.2 35455.3 35415.3 35375.2 35335.2 35294.9 35254.7 35214.4 35174 35133.6 35093.1 35052.5 35011.9 34971.2 34930.5 34889.6 34848.7 34807.8 34766.8 34725.8 34684.6 34643.4 34602.1 34560.8 34519.5 34478 34436.5 34394.9 34353.2 34311.6 34269.8 34227.9 34186 34144 34102.1 34059.9 34017.7 33975.5 33933.2 33890.9 33848.4 33805.9 33763.4 33720.8 33678.1 33635.3 33592.5 33549.6 33506.6 33463.7 33420.5 33377.4 33334.2 33290.9 33247.6 33204.1 33160.6 33117 33073.4 33029.8 32985.9 32942.1 32898.2 32854.3 32810.3 32766.1 32721.9 32677.7 32633.4 32589.1 32544.6 32500.1 32455.5 32410.8 32366.1 32321.3 32276.4 32231.5 32186.5 32141.5 32096.3 32051.1 32005.8 31960.4 31915.1 31869.5 31824 31778.3 31732.6 31686.9 31641 31595.1 31549.1 31503 31456.9 31410.7 31364.4 31318.1 31271.6 31225.2 31178.6 31131.9 31085.2 31038.4 30991.7 30944.7 30897.7 30850.6 30803.4 30756.3 30708.9 30661.6 30614.1 30566.6 30519.1 30471.4 30423.6 30375.8 30327.9 30280 30231.9 30183.8 30135.6 30087.4 30039.1 29990.6 29942.1 29893.6 29844.9 29796.3 29747.4 29698.6 29649.6 29600.6 29551.6 29502.4 29453.1 29403.8 29354.4 29305 29255.4 29205.7 29156 29106.2 29056.4 29006.4 28956.4 28906.3 28856.1 28805.9 28755.5 28705.1 28654.6 28604 28553.5 28502.6 28451.8 28400.9 28350 28299 28247.8 28196.5 28145.2 28093.9 28042.5 27990.9 27939.2 27887.5 27835.7 27784 27731.9 27679.9 27627.8 27575.6 27523.4 27470.9 27418.4 27365.9 27313.3 27260.7 27207.8 27154.9 27102 27048.9 26995.9 26942.6 26889.3 26835.9 26782.5 26729 26675.3 26621.5 26567.7 26513.9 26460 26405.8 26351.7 26297.4 26243.2 26188.9 26134.3 26079.7 26025.1 25970.4 25915.7 25860.7 25805.7 25750.8 25695.7 25640.6 25585.3 25529.9 25474.6 25419.2 25363.8 25308.1 25252.5 25196.9 25141.3 25085.6 25029.7 24973.9 24918.2 24862.5 24806.7 24750.8 24695.1 24639.4 24583.7 24528 24472.3 24417 24361.9 24306.9 24252.1 24197.5 24142.5 24087.5 24032.5 23977.1 23922.4 23873.7 23825.1 23776.5 23732.7 23683.6 23618.2 23552.8 23487.2 23412.7 23361.5 23331.2 23301.1 23271.3 23257.1 23252.9 23248.8 23244.6 23240.5 23238.9 23236.3 23231.1 23225.8 23220.5 23214.8 23187.8 23160.6 23133.2 23105.5 23061.9 22986 22917 22848.1 22779.2 22723 22671.8 22615.5 22559.2 22502.8 22440.1 22372.4 22304.3 22236.2 22168.1 22099.6 22028.3 21955.1 21881.8 21808.6 21733.3 21655 21575.2 21495.4 21415.6 21334.2 21249.9 21163.8 21077.7 20991.5 20903.5 20812.5 20719.6 20626.6 20533.6 20438.8 20340.7 20240.5 20140.2 20039.8 19937.5 19831.6 19723.4 19615.1 19506.7 19396.3 19281.9 19164.9 19047.6 18930.3 18810.5 18686.5 18559.8 18432.9 18305.8 18176.4 18042.4 17904.4 17766.2 17627.9 17486 17339.1 17189.4 17039.5 16889.6 16737.3 16579.5 16415 16250 16084.8 15913.3 15735.6 15557.4 15379.3 15201.1 15023.1 14838.4 14638.9 14438.6 14237.5 14022.2 13799 13585.9 13373.4 13161.5 12960.2 12751.3 12503.8 12254 12002.1 11712.8 11412.7 11157.3 10904.8 10655 10450.3 10237.7 9921.74 9598.17 9266.01 8833.32 8384.34 8071.58 7773.96 7494.38 7349.27 7198.24 6801.76 6357.3 5839.06 5089.68 4311.4 3779.24 3398.31 3250.96 3316.69 3382.99 3362.04 2777.15 1388.16 0