# vtk DataFile Version 2.0
track0
ASCII
DATASET POLYDATA
POINTS 12278 float
-0.0205 0.001 1e-05
-0.02052 0.000999216 1e-05
-0.02054 0.000998592 1e-05
-0.02056 0.000998126 1e-05
-0.02058 0.000997818 1e-05
-0.0206 0.000997665 1e-05
-0.0205 0.00367778 1e-05
-0.02052 0.00367703 1e-05
-0.02054 0.00367643 1e-05
-0.02056 0.00367599 1e-05
-0.02058 0.00367569 1e-05
-0.0206 0.00367554 1e-05
-0.0205 0.00635556 1e-05
-0.02052 0.00635527 1e-05
-0.02054 0.00635505 1e-05
-0.02056 0.00635488 1e-05
-0.02058 0.00635476 1e-05
-0.0206 0.00635471 1e-05
-0.0205 0.00903333 1e-05
-0.02052 0.00903311 1e-05
-0.02054 0.00903293 1e-05
-0.02056 0.0090328 1e-05
-0.02058 0.00903271 1e-05
-0.0206 0.00903266 1e-05
-0.0205 0.0117111 1e-05
-0.02052 0.0117111 1e-05
-0.02054 0.011711 1e-05
-0.02056 0.011711 1e-05
-0.02058 0.011711 1e-05
-0.0206 0.011711 1e-05
-0.0205 0.0143889 1e-05
-0.02052 0.014389 1e-05
-0.02054 0.014389 1e-05
-0.02056 0.0143891 1e-05
-0.02058 0.0143891 1e-05
-0.0206 0.0143891 1e-05
-0.0205 0.0170667 1e-05
-0.02052 0.017067 1e-05
-0.02054 0.0170672 1e-05
-0.02056 0.0170674 1e-05
-0.02058 0.0170675 1e-05
-0.0206 0.0170676 1e-05
-0.0205 0.0197444 1e-05
-0.02052 0.019745 1e-05
-0.02054 0.0197454 1e-05
-0.02056 0.0197457 1e-05
-0.02058 0.0197459 1e-05
-0.0206 0.019746 1e-05
-0.0205 0.0224222 1e-05
-0.02052 0.022423 1e-05
-0.02054 0.0224236 1e-05
-0.02056 0.0224241 1e-05
-0.02058 0.0224244 1e-05
-0.0206 0.0224245 1e-05
-0.0205 0.0251 1e-05
-0.02052 0.0251003 1e-05
-0.02054 0.0251005 1e-05
-0.02056 0.0251007 1e-05
-0.02058 0.0251008 1e-05
-0.0206 0.0251008 1e-05
-0.0205 0.001 1e-05
-0.0203632 0.00100536 1e-05
-0.0202266 0.00101331 1e-05
-0.0200901 0.00102296 1e-05
-0.0200427 0.00102682 1e-05
-0.0198376 0.00104418 1e-05
-0.0196338 0.00107322 1e-05
-0.0194327 0.00111734 1e-05
-0.0192368 0.00118024 1e-05
-0.0190172 0.00124951 1e-05
-0.0189002 0.00128348 1e-05
-0.0187827 0.00131598 1e-05
-0.0186649 0.001347 1e-05
-0.0185469 0.001377 1e-05
-0.0183807 0.00141936 1e-05
-0.0182041 0.00146458 1e-05
-0.0180267 0.00150692 1e-05
-0.0178487 0.0015464 1e-05
-0.0176703 0.00158389 1e-05
-0.0174976 0.00161991 1e-05
-0.0172846 0.00166394 1e-05
-0.0170715 0.00170741 1e-05
-0.0168583 0.00175029 1e-05
-0.0166449 0.00179219 1e-05
-0.0163945 0.00184007 1e-05
-0.0163234 0.00185324 1e-05
-0.0162522 0.00186629 1e-05
-0.016181 0.00187921 1e-05
-0.0161097 0.00189201 1e-05
-0.0160387 0.0019046 1e-05
-0.0157586 0.0019535 1e-05
-0.0154779 0.00199931 1e-05
-0.0151968 0.00204225 1e-05
-0.0149154 0.00208283 1e-05
-0.0146381 0.00212134 1e-05
-0.0143838 0.00215527 1e-05
-0.0141293 0.00218766 1e-05
-0.0138747 0.00221855 1e-05
-0.0136198 0.00224797 1e-05
-0.0132934 0.00228369 1e-05
-0.0132791 0.00228515 1e-05
-0.0132648 0.0022866 1e-05
-0.0132504 0.00228805 1e-05
-0.0132361 0.0022895 1e-05
-0.0132214 0.00229098 1e-05
-0.0129776 0.00231543 1e-05
-0.0127337 0.00233865 1e-05
-0.0124897 0.00236061 1e-05
-0.0122456 0.0023813 1e-05
-0.0120025 0.00240058 1e-05
-0.0117547 0.00241909 1e-05
-0.0115067 0.00243627 1e-05
-0.0112587 0.00245231 1e-05
-0.0110106 0.00246734 1e-05
-0.0107632 0.00248136 1e-05
-0.0105252 0.00249391 1e-05
-0.0102872 0.00250547 1e-05
-0.0100491 0.00251602 1e-05
-0.00981105 0.00252575 1e-05
-0.00957337 0.00253472 1e-05
-0.00934491 0.00254261 1e-05
-0.00911643 0.00254974 1e-05
-0.00888792 0.00255611 1e-05
-0.0086594 0.00256172 1e-05
-0.00843108 0.00256669 1e-05
-0.00821175 0.00257085 1e-05
-0.00799241 0.00257439 1e-05
-0.00777306 0.00257731 1e-05
-0.0075537 0.00257953 1e-05
-0.00733443 0.00258115 1e-05
-0.00712387 0.00258213 1e-05
-0.0069133 0.00258256 1e-05
-0.00670273 0.00258244 1e-05
-0.00649216 0.00258163 1e-05
-0.0062816 0.00258018 1e-05
-0.00607944 0.0025782 1e-05
-0.0058773 0.00257566 1e-05
-0.00567516 0.00257257 1e-05
-0.00547303 0.00256875 1e-05
-0.00527083 0.0025642 1e-05
-0.00507675 0.00255913 1e-05
-0.00488269 0.00255344 1e-05
-0.00468865 0.00254712 1e-05
-0.00449464 0.00253999 1e-05
-0.00430044 0.00253192 1e-05
-0.00411412 0.0025233 1e-05
-0.00392784 0.0025139 1e-05
-0.00374159 0.0025037 1e-05
-0.0035554 0.00249256 1e-05
-0.00336883 0.00248018 1e-05
-0.00318995 0.00246713 1e-05
-0.00301115 0.00245301 1e-05
-0.00283245 0.00243776 1e-05
-0.00265386 0.00242123 1e-05
-0.00247443 0.00240316 1e-05
-0.0023027 0.00238428 1e-05
-0.00213114 0.00236386 1e-05
-0.00195982 0.00234156 1e-05
-0.00178875 0.00231741 1e-05
-0.00161577 0.00229108 1e-05
-0.00161565 0.00229106 1e-05
-0.00161552 0.00229104 1e-05
-0.00161539 0.00229102 1e-05
-0.00161527 0.002291 1e-05
-0.00161514 0.00229098 1e-05
-0.0014504 0.00226408 1e-05
-0.00128605 0.00223482 1e-05
-0.00112214 0.00220327 1e-05
-0.000958664 0.00216949 1e-05
-0.000791418 0.00213239 1e-05
-0.000633135 0.00209428 1e-05
-0.000475556 0.00205335 1e-05
-0.000318719 0.00200967 1e-05
-0.000162834 0.0019627 1e-05
0 0.00190955 1e-05
3.73576e-05 0.00189634 1e-05
7.46152e-05 0.00188286 1e-05
0.000111774 0.0018691 1e-05
0.000148836 0.00185509 1e-05
0.000179156 0.00184338 1e-05
0.000249002 0.00181594 1e-05
0.000318438 0.00178749 1e-05
0.000387448 0.00175802 1e-05
0.000456019 0.00172754 1e-05
0.000528387 0.00169417 1e-05
0.000634886 0.00164319 1e-05
0.000740278 0.00158996 1e-05
0.00084451 0.00153449 1e-05
0.00094762 0.00147697 1e-05
0.00101994 0.00143469 1e-05
0.00102813 0.00142974 1e-05
0.00103631 0.00142477 1e-05
0.00104448 0.0014198 1e-05
0.00105264 0.0014148 1e-05
0.00106088 0.00140974 1e-05
0.00116821 0.00134355 1e-05
0.00127404 0.00127499 1e-05
0.00137827 0.00120404 1e-05
0.00148099 0.00113091 1e-05
0.00159675 0.00104511 1e-05
0.0015969 0.00104499 1e-05
0.00159705 0.00104487 1e-05
0.00159721 0.00104475 1e-05
0.00159736 0.00104463 1e-05
0.00159752 0.00104451 1e-05
0.00169219 0.000970931 1e-05
0.00178547 0.000895587 1e-05
0.00187726 0.000818445 1e-05
0.00196764 0.000739647 1e-05
0.00203804 0.000676367 1e-05
0.0020581 0.000657885 1e-05
0.00207807 0.000639313 1e-05
0.00209796 0.000620651 1e-05
0.00211779 0.000601927 1e-05
0.00213833 0.00058242 1e-05
0.00219147 0.000531595 1e-05
0.00224411 0.000480253 1e-05
0.00229624 0.000428386 1e-05
0.00234784 0.000375987 1e-05
0.00239414 0.000328255 1e-05
0.00245198 0.000267801 1e-05
0.00250919 0.000206748 1e-05
0.00256576 0.000145111 1e-05
0.00262183 8.30087e-05 1e-05
0.00268334 1.36947e-05 1e-05
0.00268572 1.09557e-05 1e-05
0.0026881 8.21579e-06 1e-05
0.00269048 5.47481e-06 1e-05
0.00269286 2.73281e-06 1e-05
0.00269523 0 1e-05
0.00275913 -7.37368e-05 1e-05
0.00282241 -0.000148005 1e-05
0.00288505 -0.000222813 1e-05
0.00294702 -0.000298173 1e-05
0.00300409 -0.000368654 1e-05
0.00304979 -0.000425926 1e-05
0.00309518 -0.000483444 1e-05
0.00314026 -0.000541203 1e-05
0.00318509 -0.000599158 1e-05
0.00323259 -0.000661125 1e-05
0.00325064 -0.000684919 1e-05
0.00326864 -0.000708752 1e-05
0.00328659 -0.000732626 1e-05
0.00330448 -0.00075654 1e-05
0.00332204 -0.00078009 1e-05
0.00339018 -0.000871877 1e-05
0.00345772 -0.000964107 1e-05
0.00352464 -0.00105679 1e-05
0.00359101 -0.00114986 1e-05
0.00365387 -0.00123896 1e-05
0.00368032 -0.00127684 1e-05
0.00370669 -0.00131478 1e-05
0.00373299 -0.00135276 1e-05
0.00375923 -0.00139079 1e-05
0.00378611 -0.00142985 1e-05
0.0038301 -0.00149397 1e-05
0.00387387 -0.00155824 1e-05
0.00391742 -0.00162266 1e-05
0.00396075 -0.00168724 1e-05
0.00400291 -0.00175044 1e-05
0.00407111 -0.00185326 1e-05
0.0041389 -0.00195636 1e-05
0.00420626 -0.00205974 1e-05
0.00427334 -0.00216331 1e-05
0.00434393 -0.00227298 1e-05
0.00434998 -0.00228244 1e-05
0.00435603 -0.00229191 1e-05
0.00436207 -0.00230138 1e-05
0.00436811 -0.00231085 1e-05
0.00437413 -0.0023203 1e-05
0.00445498 -0.00244725 1e-05
0.00453537 -0.00257449 1e-05
0.00461537 -0.00270197 1e-05
0.00469501 -0.00282968 1e-05
0.00477288 -0.00295498 1e-05
0.00479953 -0.00299799 1e-05
0.00482614 -0.00304103 1e-05
0.00485273 -0.00308408 1e-05
0.00487931 -0.00312713 1e-05
0.00490609 -0.00317051 1e-05
0.00496672 -0.00326873 1e-05
0.00502721 -0.00336705 1e-05
0.00508755 -0.00346546 1e-05
0.00514775 -0.00356395 1e-05
0.0052074 -0.00366161 1e-05
0.00526044 -0.00374852 1e-05
0.00531345 -0.00383545 1e-05
0.00536641 -0.00392241 1e-05
0.0054194 -0.00400936 1e-05
0.00547262 -0.00409656 1e-05
0.00551559 -0.00416687 1e-05
0.00555853 -0.0042372 1e-05
0.00560143 -0.00430756 1e-05
0.00564432 -0.00437792 1e-05
0.00568714 -0.00444811 1e-05
0.00575842 -0.00456487 1e-05
0.00582975 -0.00468159 1e-05
0.00590113 -0.00479829 1e-05
0.00597264 -0.00491491 1e-05
0.00604356 -0.00503009 1e-05
0.0060798 -0.00508872 1e-05
0.00611606 -0.00514735 1e-05
0.00615232 -0.00520597 1e-05
0.00618861 -0.00526458 1e-05
0.006225 -0.00532326 1e-05
0.00630378 -0.00545005 1e-05
0.00638276 -0.00557672 1e-05
0.00646193 -0.00570326 1e-05
0.00654138 -0.00582964 1e-05
0.00661893 -0.0059522 1e-05
0.00666281 -0.0060211 1e-05
0.00670675 -0.00608997 1e-05
0.00675074 -0.0061588 1e-05
0.00679481 -0.00622758 1e-05
0.00683926 -0.00629671 1e-05
0.00691116 -0.00640816 1e-05
0.00698332 -0.00651944 1e-05
0.00705574 -0.00663055 1e-05
0.00712844 -0.00674147 1e-05
0.00719878 -0.00684797 1e-05
0.00726944 -0.00695418 1e-05
0.00734032 -0.00706025 1e-05
0.00741142 -0.00716616 1e-05
0.00748284 -0.00727187 1e-05
0.00755578 -0.00737909 1e-05
0.00760125 -0.00744544 1e-05
0.00764685 -0.00751171 1e-05
0.00769258 -0.00757789 1e-05
0.00773843 -0.00764398 1e-05
0.00778313 -0.00770806 1e-05
0.00790091 -0.00787604 1e-05
0.00801946 -0.00804349 1e-05
0.00813878 -0.00821038 1e-05
0.0082591 -0.00837655 1e-05
0.00837203 -0.00853047 1e-05
0.00837968 -0.00854075 1e-05
0.00838733 -0.00855103 1e-05
0.00839499 -0.00856131 1e-05
0.00840264 -0.00857159 1e-05
0.00841033 -0.00858189 1e-05
0.00852136 -0.00873062 1e-05
0.00863322 -0.00887874 1e-05
0.00874593 -0.00902621 1e-05
0.0088595 -0.00917302 1e-05
0.00896551 -0.00930819 1e-05
0.00903005 -0.00938942 1e-05
0.00909484 -0.00947043 1e-05
0.00915991 -0.00955124 1e-05
0.00922527 -0.00963179 1e-05
0.0092928 -0.00971438 1e-05
0.00934696 -0.00978009 1e-05
0.00940132 -0.00984563 1e-05
0.00945587 -0.00991101 1e-05
0.00951062 -0.00997623 1e-05
0.0095636 -0.0100389 1e-05
[...]
POINT_DATA 12278
 FIELD attributes 1
U 3 12278 float
9.72339 	0.381311 	0 9.77871 	0.305049 	0 9.83405 	0.228765 	0 9.8894 	0.152465 	0 9.94476 	0.0761532 	0 10 	0 	0
10.0671 	0.375483 	0 10.0537 	0.300387 	0 10.0403 	0.225271 	0 10.0268 	0.150141 	0 10.0134 	0.0750008 	0 10 	0 	0
10.0364 	0.141572 	0 10.0291 	0.113304 	0 10.0218 	0.0850891 	0 10.0145 	0.0569263 	0 10.0071 	0.0288164 	0 10 	0 	0
10.0137 	0.111519 	0 10.011 	0.0892152 	0 10.0082 	0.0669109 	0 10.0055 	0.0446062 	0 10.0027 	0.0223013 	0 10 	0 	0
10.0097 	0.0196536 	0 10.0078 	0.0157229 	0 10.0058 	0.0117922 	0 10.0039 	0.00786144 	0 10.0019 	0.00393071 	0 10 	0 	0
10.0102 	-0.0372873 	0 10.0082 	-0.0298298 	0 10.0061 	-0.0223724 	0 10.0041 	-0.0149149 	0 10.002 	-0.00745736 	0 10 	0 	0
10.0174 	-0.148996 	0 10.0139 	-0.119197 	0 10.0105 	-0.0893967 	0 10.007 	-0.0595953 	0 10.0035 	-0.0297932 	0 10 	0 	0
10.0362 	-0.265901 	0 10.029 	-0.212721 	0 10.0217 	-0.159534 	0 10.0145 	-0.106342 	0 10.0072 	-0.053146 	0 10 	0 	0
10.0563 	-0.387167 	0 10.045 	-0.309734 	0 10.0338 	-0.23228 	0 10.0225 	-0.15481 	0 10.0112 	-0.0773281 	0 10 	0 	0
8.30133 	-0.114495 	0 8.4287 	-0.091596 	0 8.55659 	-0.0686962 	0 8.68498 	-0.0457957 	0 8.81385 	-0.0228949 	0 8.94315 	0 	0
9.72339 	0.381311 	0 9.5415 	0.555241 	0 9.39671 	0.663651 	0 9.26203 	0.754271 	0 9.2183 	0.780385 	0 8.95344 	1.27614 	0 8.70578 	1.91036 	0 8.48173 	2.72184 	0 8.46724 	2.67123 	0 8.47252 	2.45986 	0 8.50117 	2.35314 	0 8.52498 	2.2443 	0 8.51221 	2.16311 	0 8.42487 	2.14738 	0 8.30214 	2.12559 	0 8.30117 	1.9821 	0 8.28715 	1.83798 	0 8.21181 	1.72569 	0 8.035 	1.67507 	0 7.86306 	1.62575 	0 7.68323 	1.56759 	0 7.50177 	1.50875 	0 7.42793 	1.45839 	0 7.36148 	1.40771 	0 7.27865 	1.34671 	0 7.22249 	1.32376 	0 7.16614 	1.3007 	0 7.10958 	1.27753 	0 7.07928 	1.2544 	0 7.05291 	1.23121 	0 6.97394 	1.13838 	0 6.88841 	1.05226 	0 6.79883 	0.980329 	0 6.71191 	0.932083 	0 6.6228 	0.883659 	0 6.55089 	0.833776 	0 6.49228 	0.787588 	0 6.44246 	0.743857 	0 6.3887 	0.699092 	0 6.31694 	0.642267 	0 6.31476 	0.640172 	0 6.3132 	0.638348 	0 6.31172 	0.636561 	0 6.31022 	0.634773 	0 6.30868 	0.632934 	0 6.27131 	0.597064 	0 6.23151 	0.560865 	0 6.18921 	0.524334 	0 6.1444 	0.487465 	0 6.10942 	0.456255 	0 6.07602 	0.420972 	0 6.0457 	0.390998 	0 6.017 	0.364554 	0 5.99442 	0.339604 	0 5.97315 	0.3152 	0 5.95245 	0.289066 	0 5.92972 	0.262723 	0 5.91347 	0.241662 	0 5.90339 	0.222658 	0 5.89181 	0.203592 	0 5.87916 	0.183525 	0 5.86497 	0.163358 	0 5.85626 	0.143794 	0 5.85336 	0.127406 	0 5.84918 	0.110991 	0 5.84296 	0.0943565 	0 5.83549 	0.0776805 	0 5.8334 	0.0589783 	0 5.83629 	0.0431049 	0 5.83799 	0.0272319 	0 5.83716 	0.0119345 	0 5.83533 	-0.0034321 	0 5.83919 	-0.022533 	0 5.8473 	-0.040024 	0 5.85423 	-0.0574609 	0 5.85859 	-0.0735274 	0 5.86183 	-0.089568 	0 5.87119 	-0.110956 	0 5.88465 	-0.132493 	0 5.89663 	-0.153959 	0 5.90648 	-0.173325 	0 5.91505 	-0.192621 	0 5.92937 	-0.218081 	0 5.94825 	-0.247036 	0 5.96524 	-0.275851 	0 5.98118 	-0.302082 	0 5.99548 	-0.328164 	0 6.01451 	-0.359779 	0 6.03861 	-0.400942 	0 6.06021 	-0.441861 	0 6.08255 	-0.480324 	0 6.10475 	-0.520944 	0 6.13005 	-0.567599 	0 6.15453 	-0.619673 	0 6.17866 	-0.679481 	0 6.20604 	-0.738471 	0 6.23738 	-0.811861 	0 6.26485 	-0.884714 	0 6.2885 	-0.95703 	0 6.30861 	-1.02974 	0 6.30863 	-1.02981 	0 6.30865 	-1.02989 	0 6.30867 	-1.02998 	0 6.30869 	-1.03006 	0 6.30872 	-1.03015 	0 6.33249 	-1.1273 	0 6.35102 	-1.22236 	0 6.36443 	-1.31535 	0 6.37518 	-1.41401 	0 6.38845 	-1.53818 	0 6.40625 	-1.66392 	0 6.4178 	-1.78757 	0 6.40568 	-1.93007 	2.61997e-20 6.3693 	-2.07903 	5.37087e-20 6.31915 	-2.2338 	8.12108e-20 6.31094 	-2.28428 	2.33304e-20 6.29875 	-2.33164 	5.77408e-21 6.28238 	-2.37568 	3.12167e-20 6.26545 	-2.41946 	5.72803e-20 6.2511 	-2.45516 	7.91681e-20 6.22471 	-2.55099 	1.78915e-19 6.19638 	-2.64626 	2.82821e-19 6.1661 	-2.74094 	3.90859e-19 6.11996 	-2.82206 	2.74253e-19 6.06343 	-2.90238 	6.24712e-20 5.98347 	-3.02204 	4.92536e-20 5.89831 	-3.13873 	3.61733e-20 5.80145 	-3.23657 	8.55619e-21 5.70018 	-3.33248 	-1.80613e-20 5.6252 	-3.3991 	-3.62195e-20 5.61607 	-3.40838 	-3.6012e-20 5.60691 	-3.41765 	-3.57896e-20 5.59768 	-3.42628 	-3.69376e-20 5.58832 	-3.43322 	-4.17331e-20 5.57881 	-3.44023 	-4.6574e-20 5.45892 	-3.53643 	-2.83057e-20 5.33371 	-3.63068 	-9.46445e-21 5.20768 	-3.70764 	1.18397e-22 5.08145 	-3.76651 	-2.02944e-22 4.93236 	-3.83188 	6.69619e-23 4.93213 	-3.83201 	3.83189e-23 4.9319 	-3.83213 	9.6756e-24 4.93169 	-3.83222 	1.69859e-23 4.93149 	-3.83229 	4.26367e-23 4.93129 	-3.83236 	6.82948e-23 4.80556 	-3.88171 	1.12159e-21 4.67574 	-3.92946 	2.47944e-21 4.54879 	-3.96596 	4.20761e-21 4.43114 	-3.98306 	6.33314e-21 4.33581 	-3.99543 	8.20417e-21 4.3055 	-4.00309 	1.33462e-20 4.27498 	-4.01066 	1.85262e-20 4.24969 	-4.01238 	9.21422e-21 4.22454 	-4.01374 	-8.2668e-22 4.19827 	-4.01509 	-1.12369e-20 4.12444 	-4.0224 	-6.3631e-20 4.04942 	-4.02919 	-1.15657e-19 3.97338 	-4.0353 	-1.65862e-19 3.90919 	-4.02977 	-1.01594e-19 3.85036 	-4.02439 	-4.30515e-20 3.77281 	-4.02653 	4.15843e-21 3.69536 	-4.02579 	4.19662e-20 3.62349 	-4.01368 	3.41701e-20 3.55055 	-4.00109 	2.66446e-20 3.46854 	-3.98661 	1.86192e-20 3.46518 	-3.98619 	1.92496e-20 3.46181 	-3.98577 	1.98801e-20 3.45845 	-3.98535 	2.05108e-20 3.45527 	-3.98462 	2.10401e-20 3.45218 	-3.98377 	2.15276e-20 3.38406 	-3.97176 	1.41226e-20 3.31387 	-3.95761 	7.41409e-21 3.24247 	-3.94276 	7.0023e-22 3.17068 	-3.91569 	6.1724e-21 3.10305 	-3.88892 	1.2356e-20 3.06098 	-3.87892 	3.4721e-20 3.0186 	-3.86753 	5.06158e-20 2.97701 	-3.84858 	2.33619e-20 2.93502 	-3.8294 	-3.83511e-21 2.88984 	-3.80871 	-3.27527e-20 2.8717 	-3.80215 	-3.8864e-20 2.85347 	-3.79554 	-4.49775e-20 2.83516 	-3.78888 	-5.10932e-20 2.81694 	-3.7798 	-5.72944e-20 2.799 	-3.77027 	-6.34141e-20 2.7456 	-3.74921 	-1.07141e-19 2.69137 	-3.72766 	-1.50989e-19 2.63658 	-3.69703 	-1.46193e-19 2.58216 	-3.65965 	-8.81838e-20 2.52963 	-3.62355 	-3.27029e-20 2.51272 	-3.61463 	2.04392e-21 2.49576 	-3.60551 	3.51889e-20 2.4799 	-3.59313 	2.99383e-20 2.46397 	-3.5807 	2.47229e-20 2.44756 	-3.56789 	1.94075e-20 2.41701 	-3.5488 	5.65393e-20 2.3862 	-3.52952 	9.35915e-20 2.35514 	-3.51004 	1.30562e-19 2.32513 	-3.48552 	1.03459e-19 2.29571 	-3.46107 	7.2295e-20 2.25879 	-3.43539 	4.2451e-20 2.22142 	-3.40938 	1.25747e-20 2.18686 	-3.37654 	-2.88828e-21 2.15206 	-3.34335 	-1.80904e-20 2.11494 	-3.30803 	-3.41917e-20 2.11122 	-3.30516 	-3.17618e-20 2.1075 	-3.30229 	-2.93347e-20 2.10377 	-3.29942 	-2.69105e-20 2.10026 	-3.29598 	-3.398e-20 2.09676 	-3.29253 	-4.13473e-20 2.06004 	-3.26026 	-1.64683e-19 2.02432 	-3.22593 	-2.56673e-19 1.98926 	-3.18982 	-2.99665e-19 1.95703 	-3.14894 	-1.93325e-19 1.92527 	-3.10871 	-8.89879e-20 1.91667 	-3.09904 	-7.79014e-20 1.90805 	-3.08934 	-6.68107e-20 1.90071 	-3.07851 	-5.65437e-20 1.89368 	-3.06741 	-4.64672e-20 1.88659 	-3.05622 	-3.6315e-20 1.86465 	-3.03084 	-1.17702e-20 1.84261 	-3.00535 	1.2796e-20 1.82101 	-2.97919 	2.99785e-20 1.80198 	-2.95021 	1.21403e-20 1.78308 	-2.92146 	-5.53409e-21 1.76969 	-2.90251 	-2.115e-20 1.75627 	-2.88352 	-3.67542e-20 1.74503 	-2.86324 	-1.81201e-20 1.73473 	-2.84244 	1.47083e-20 1.72443 	-2.8216 	4.76435e-20 1.7121 	-2.80441 	1.21377e-20 1.69975 	-2.78719 	-2.33177e-20 1.68803 	-2.7695 	-3.49416e-20 1.67795 	-2.75065 	1.29475e-20 1.66791 	-2.73185 	6.07052e-20 1.65457 	-2.70765 	1.97479e-19 1.64127 	-2.68348 	3.34193e-19 1.63035 	-2.65853 	2.96363e-19 1.62119 	-2.6331 	1.33615e-19 1.61228 	-2.60806 	-2.78262e-20 1.60447 	-2.5947 	-5.73749e-20 1.59667 	-2.58135 	-8.69315e-20 1.58968 	-2.56765 	-8.97816e-20 1.5838 	-2.55349 	-5.62834e-20 1.57794 	-2.53934 	-2.27586e-20 1.56795 	-2.51482 	-2.46196e-20 1.55806 	-2.49039 	-2.65203e-20 1.55012 	-2.46585 	-1.93217e-20 1.54468 	-2.44115 	-4.87589e-22 1.53961 	-2.41734 	1.77657e-20 1.53297 	-2.40286 	2.97361e-20 1.52635 	-2.3884 	4.17018e-20 1.52104 	-2.37372 	4.57342e-20 1.51669 	-2.35889 	4.4112e-20 1.51237 	-2.34403 	4.24598e-20 1.50713 	-2.32429 	2.55765e-20 1.50202 	-2.30466 	8.66752e-21 1.49798 	-2.28524 	-3.12853e-21 1.49663 	-2.26619 	-1.11596e-21 1.49553 	-2.24802 	8.17429e-22 1.48857 	-2.22751 	7.62235e-20 1.4817 	-2.2071 	1.51857e-19 1.47744 	-2.18685 	1.25746e-19 1.47411 	-2.16676 	6.77856e-20 1.47088 	-2.14648 	8.99939e-21 1.46968 	-2.13593 	-2.33931e-20 1.46853 	-2.12543 	-5.5742e-20 1.46765 	-2.1151 	-8.20813e-20 1.46918 	-2.1062 	-3.65235e-20 1.47074 	-2.09763 	7.88462e-21 1.46361 	-2.06741 	4.60756e-21 1.45678 	-2.03748 	1.31272e-21 1.45602 	-2.01091 	-2.34827e-20 1.45658 	-1.9852 	-5.17611e-20 1.45918 	-1.96223 	-7.4919e-20 1.45871 	-1.96028 	-6.86278e-20 1.45824 	-1.95833 	-6.23892e-20 1.45819 	-1.95659 	-6.70991e-20 1.45815 	-1.95485 	-7.18067e-20 1.4581 	-1.95311 	-7.65245e-20 1.45622 	-1.92817 	-2.09645e-19 1.45471 	-1.90353 	-3.42031e-19 1.45394 	-1.87947 	-4.46805e-19 1.45819 	-1.85923 	-1.91272e-19 1.46256 	-1.84086 	4.71238e-20 1.46041 	-1.82597 	1.11133e-19 1.45839 	-1.81118 	1.74937e-19 1.4593 	-1.79851 	1.42268e-19 1.46035 	-1.78595 	1.097e-19 1.46155 	-1.77313 	7.63141e-20 1.46248 	-1.76355 	6.73731e-20 1.46349 	-1.75403 	5.84542e-20 1.46458 	-1.74459 	4.95575e-20 1.46719 	-1.73639 	5.16348e-20 1.46986 	-1.72861 	5.41541e-20 1.46935 	-1.70535 	2.94625e-20 1.46919 	-1.68237 	4.70905e-21 1.47211 	-1.66181 	2.02744e-20 1.4767 	-1.64234 	4.53619e-20 1.48264 	-1.62523 	6.85936e-20 1.48263 	-1.62118 	6.74809e-20 1.48271 	-1.6172 	6.76436e-20 1.4833 	-1.6136 	7.51641e-20 1.4839 	-1.61001 	8.26826e-20 1.48452 	-1.60638 	9.02885e-20 1.48723 	-1.59062 	1.39726e-19 1.4902 	-1.57506 	1.8904e-19 1.49345 	-1.5597 	2.38228e-19 1.49863 	-1.54619 	1.68543e-19 1.50405 	-1.534 	8.21694e-20 1.50571 	-1.51452 	1.55451e-19 1.50821 	-1.49578 	2.03507e-19 1.51283 	-1.47897 	1.61696e-19 1.51779 	-1.46243 	1.20415e-19 1.52349 	-1.44495 	7.66744e-20 1.52352 	-1.44487 	7.63696e-20 1.52355 	-1.44478 	7.60649e-20 1.52358 	-1.4447 	7.57602e-20 1.52361 	-1.44463 	7.61653e-20 1.52365 	-1.44455 	7.68813e-20 1.52804 	-1.42752 	1.26831e-19 1.53285 	-1.41077 	1.74877e-19 1.53804 	-1.39428 	2.22532e-19 1.54481 	-1.37957 	1.84297e-19 1.55191 	-1.36664 	1.17167e-19 1.55525 	-1.34904 	2.03197e-19 1.55946 	-1.33232 	2.39318e-19 1.56511 	-1.31718 	1.74572e-19 1.57109 	-1.30228 	1.10041e-19 1.57744 	-1.28873 	3.78547e-20 1.57766 	-1.28776 	3.76078e-20 1.57793 	-1.28683 	3.67933e-20 1.57824 	-1.28596 	3.52632e-20 1.57856 	-1.2851 	3.37327e-20 1.57888 	-1.28423 	3.21935e-20 1.5841 	-1.27026 	-1.33776e-20 1.58963 	-1.25649 	-5.88694e-20 1.59545 	-1.24292 	-1.04279e-19 1.60217 	-1.23056 	-8.93551e-20 1.60923 	-1.21981 	-2.99815e-20 1.61369 	-1.20429 	-7.53678e-20 1.61845 	-1.18898 	-1.21168e-19 1.62453 	-1.1756 	-1.03589e-19 1.63183 	-1.16294 	-6.09359e-20 1.63985 	-1.15156 	3.29978e-22 1.64213 	-1.14475 	2.87084e-20 1.64474 	-1.13844 	2.81976e-20 1.6476 	-1.1325 	7.10072e-21 1.65051 	-1.1266 	-1.39457e-20 1.65364 	-1.12045 	-3.5987e-20 1.65729 	-1.1136 	-6.80033e-20 1.66103 	-1.10681 	-9.99072e-20 1.66486 	-1.10007 	-1.31698e-19 1.66891 	-1.09376 	-1.31249e-19 1.67316 	-1.08826 	-7.98832e-20 1.67831 	-1.07452 	-1.11921e-19 1.68434 	-1.06126 	-1.3622e-19 1.69167 	-1.04886 	-1.45607e-19 1.69986 	-1.03825 	-1.35277e-19 1.70795 	-1.02828 	-1.25289e-19 1.71373 	-1.01477 	-2.75593e-19 1.72 	-1.00208 	-3.49924e-19 1.72688 	-0.990639 	-2.95854e-19 1.73403 	-0.979359 	-2.42291e-19 1.74233 	-0.969278 	-1.16097e-19 1.74442 	-0.964962 	-8.27343e-20 1.74666 	-0.961095 	-8.49413e-20 1.74896 	-0.957361 	-9.67492e-20 1.75128 	-0.953643 	-1.0851e-19 1.75374 	-0.949784 	-1.20724e-19 1.75862 	-0.942406 	-1.24343e-19 1.76361 	-0.935096 	-1.27935e-19 1.76873 	-0.927853 	-1.31499e-19 1.77399 	-0.920901 	-1.29682e-19 1.77934 	-0.915119 	-1.05228e-19 1.78539 	-0.903187 	-1.32839e-19 1.79244 	-0.891827 	-1.44855e-19 1.80038 	-0.880974 	-1.43626e-19 1.8087 	-0.87191 	-1.02949e-19 1.81698 	-0.863378 	-6.09233e-20 1.8236 	-0.851687 	-1.64885e-19 1.83048 	-0.840165 	-2.66658e-19 1.83764 	-0.830472 	-2.25345e-19 1.84586 	-0.821363 	-1.27946e-19 1.85454 	-0.812918 	4.45209e-23 1.86114 	-0.802384 	1.4259e-22 1.8679 	-0.793479 	1.08045e-22 1.87486 	-0.784716 	6.94978e-23 1.88201 	-0.776054 	3.05239e-23 1.89037 	-0.766307 	-1.4327e-23 1.89076 	-0.765871 	7.43312e-22 1.89116 	-0.765436 	1.50043e-21 1.89156 	-0.765001 	2.25703e-21 1.89195 	-0.764567 	3.01311e-21 1.89234 	-0.764218 	4.42924e-22 1.89982 	-0.754761 	-2.54215e-20 1.90761 	-0.745477 	-4.72898e-20 1.91563 	-0.736305 	-6.89798e-20 1.92386 	-0.727258 	-8.98672e-20 1.93177 	-0.720271 	-3.1182e-20 1.93866 	-0.710315 	-2.11114e-20 1.94623 	-0.700796 	-1.38927e-20 1.95461 	-0.691812 	-1.03798e-20 1.96278 	-0.684543 	-1.59681e-20 1.97092 	-0.677675 	-2.24335e-20 1.97824 	-0.667969 	5.39591e-20 1.98577 	-0.658364 	1.30464e-19 1.9932 	-0.650277 	1.32361e-19 2.00151 	-0.643331 	6.57234e-20 2.00986 	-0.636588 	1.62956e-22 2.01757 	-0.627136 	9.68057e-23 2.0251 	-0.618763 	-1.12141e-20 2.03252 	-0.611222 	-3.10597e-20 2.04013 	-0.60376 	-5.08816e-20 2.04859 	-0.597119 	-6.39283e-20 2.05548 	-0.589433 	-1.06395e-19 2.062 	-0.582938 	-1.09943e-19 2.06865 	-0.5765 	-1.1355e-19 2.07543 	-0.57012 	-1.17216e-19 2.08338 	-0.562858 	-1.21493e-19 2.08416 	-0.562177 	-1.22705e-19 2.08494 	-0.561496 	-1.23917e-19 2.08572 	-0.560816 	-1.25128e-19 2.08651 	-0.560136 	-1.26339e-19 2.08722 	-0.559584 	-1.22234e-19 2.09468 	-0.552283 	-9.42872e-20 2.10238 	-0.545125 	-6.5044e-20 2.11025 	-0.538036 	-3.58386e-20 2.11829 	-0.531017 	-6.67123e-21 2.12556 	-0.525529 	1.79202e-22 2.13271 	-0.517764 	6.74872e-20 2.14054 	-0.510781 	8.64904e-20 2.14855 	-0.503889 	1.03628e-19 2.15621 	-0.497814 	8.43092e-20 2.16322 	-0.492896 	1.48809e-20 2.17061 	-0.485374 	-5.50597e-20 2.17822 	-0.477999 	-1.18848e-19 2.18629 	-0.47136 	-1.35002e-19 2.1932 	-0.466495 	-6.72707e-20 2.20018 	-0.461715 	-7.23903e-23 2.20777 	-0.454435 	-3.9491e-23 2.21553 	-0.447214 	-6.76398e-24 2.22264 	-0.441351 	0 2.22948 	-0.436634 	0 2.23639 	-0.431991 	0 2.24414 	-0.424952 	0 2.25182 	-0.418236 	0 2.25832 	-0.413001 	0 2.26501 	-0.408225 	-1.01295e-20 2.27182 	-0.40372 	-2.51519e-20 2.2797 	-0.396921 	-6.21629e-21 2.28662 	-0.391286 	-6.36175e-21 2.29312 	-0.386236 	-1.58276e-20 2.29974 	-0.38125 	-2.67143e-20 2.30641 	-0.376882 	-6.64568e-20 2.31412 	-0.370571 	-2.84938e-20 2.32046 	-0.36567 	-3.0283e-20 2.32693 	-0.360802 	-3.20439e-20 2.33352 	-0.355968 	-3.37769e-20 2.34011 	-0.35145 	-4.64624e-20 2.34635 	-0.346598 	-3.69272e-20 2.35194 	-0.342392 	-3.83747e-20 2.35763 	-0.338209 	-3.98009e-20 2.36342 	-0.334051 	-4.12057e-20 2.37025 	-0.329243 	-4.28153e-20 2.37078 	-0.328878 	-4.2694e-20 2.37132 	-0.328513 	-4.25729e-20 2.37186 	-0.328149 	-4.24519e-20 2.37239 	-0.327784 	-4.23311e-20 2.37286 	-0.327476 	-4.25131e-20 2.37903 	-0.322885 	-4.92571e-20 2.38529 	-0.31835 	-5.38056e-20 2.39166 	-0.313842 	-5.8277e-20 2.39815 	-0.309362 	-6.2672e-20 2.40378 	-0.305636 	-3.89598e-20 2.41011 	-0.30092 	-7.5199e-20 2.41627 	-0.29656 	-8.73317e-20 2.42254 	-0.292225 	-9.94056e-20 2.42892 	-0.287916 	-1.11421e-19 2.43355 	-0.28493 	-7.12937e-20 2.44013 	-0.280146 	-1.18611e-19 2.44617 	-0.275959 	-1.21138e-19 2.45231 	-0.271796 	-1.23617e-19 2.4582 	-0.267892 	-1.18996e-19 2.46217 	-0.265328 	-7.53408e-20 2.46878 	-0.260712 	-1.1787e-19 2.47495 	-0.256507 	-1.28044e-19 2.48095 	-0.252512 	-1.22438e-19 2.48589 	-0.249251 	-9.48015e-20 2.48962 	-0.246793 	-4.31997e-20 2.49621 	-0.24238 	4.31582e-20 2.5026 	-0.238159 	1.0391e-19 2.50844 	-0.234331 	1.09405e-19 2.51242 	-0.231643 	5.03743e-20 2.5159 	-0.229287 	-2.6692e-20 2.52244 	-0.225074 	-1.75886e-20 2.52909 	-0.220879 	-8.49514e-21 2.5346 	-0.217295 	8.66918e-21 2.53778 	-0.215028 	2.59576e-20 2.54102 	-0.212774 	4.32209e-20 2.54749 	-0.208756 	-4.33238e-20 2.55408 	-0.204754 	-1.29881e-19 2.55906 	-0.201533 	-1.41237e-19 2.56198 	-0.199367 	-7.10754e-20 2.56495 	-0.197211 	-1.0123e-21 2.57136 	-0.193384 	-9.8879e-23 2.57786 	-0.189572 	7.93746e-22 2.58237 	-0.186687 	-1.56628e-20 2.58502 	-0.184619 	-4.94097e-20 2.58773 	-0.18256 	-8.31317e-20 2.59404 	-0.17892 	-4.7676e-20 2.60045 	-0.175294 	-1.22361e-20 2.60452 	-0.172718 	-8.5467e-21 2.60691 	-0.170745 	-2.59304e-20 2.60935 	-0.168782 	-4.32983e-20 2.61557 	-0.165324 	-2.59877e-20 2.62187 	-0.161881 	-8.7165e-21 2.62548 	-0.159604 	-9.46079e-21 2.62767 	-0.157707 	-2.60538e-20 2.62984 	-0.155836 	-4.33792e-20 2.63595 	-0.152557 	-1.64887e-19 2.64159 	-0.149503 	-2.61754e-19 2.64504 	-0.147344 	-2.57064e-19 2.6473 	-0.145465 	-1.64748e-19 2.64921 	-0.143685 	-4.33597e-20 2.6552 	-0.140578 	-2.59816e-20 2.6602 	-0.137872 	-8.62114e-21 2.66348 	-0.135828 	8.70892e-21 2.66583 	-0.133982 	2.13104e-20 2.66747 	-0.132289 	3.02524e-20 2.67334 	-0.129351 	9.1321e-20 2.67773 	-0.126954 	1.18679e-19 2.68085 	-0.125022 	1.17006e-19 2.68329 	-0.12322 	9.21127e-20 2.68466 	-0.121614 	3.16761e-20 2.6904 	-0.118839 	2.32341e-20 2.69421 	-0.116717 	1.48082e-20 2.69715 	-0.114894 	6.38747e-21 2.69968 	-0.113145 	0 2.7008 	-0.111623 	0 2.70641 	-0.109007 	0 2.70966 	-0.107129 	1.47228e-20 2.71244 	-0.10541 	3.25532e-20 2.71506 	-0.103722 	5.03684e-20 2.71593 	-0.102282 	6.81103e-20 2.7214 	-0.0998191 	1.90108e-19 2.72412 	-0.098157 	1.93604e-19 2.72674 	-0.096539 	1.91077e-19 2.7294 	-0.0949242 	1.886e-19 2.73007 	-0.0935572 	7.02167e-20 2.73521 	-0.0912948 	5.32024e-20 2.73762 	-0.0897715 	3.62413e-20 2.74008 	-0.088251 	1.9272e-20 2.74257 	-0.0867332 	2.2946e-21 2.74325 	-0.0854176 	1.46971e-20 2.74794 	-0.0833719 	-4.34548e-24 2.7502 	-0.0819428 	-2.98915e-23 2.75249 	-0.0805162 	-5.54273e-23 2.75483 	-0.0790919 	-8.09529e-23 2.75552 	-0.0778319 	6.3886e-21 2.75978 	-0.0759813 	-5.08025e-20 2.76189 	-0.0746429 	-4.95036e-20 2.76403 	-0.0733065 	-4.82321e-20 2.76621 	-0.0719722 	-4.6988e-20 2.76689 	-0.0707709 	-5.64331e-21 2.77076 	-0.0690957 	8.55985e-23 2.77272 	-0.0678444 	6.04921e-23 2.77471 	-0.0665948 	3.5376e-23 2.77674 	-0.065347 	1.02501e-23 2.77742 	-0.0642064 	0 2.78093 	-0.0626891 	1.1192e-20 2.78274 	-0.0615212 	3.75154e-20 2.78459 	-0.0603548 	6.38301e-20 2.78647 	-0.0591899 	9.01361e-20 2.78714 	-0.0581113 	1.075e-19 2.79031 	-0.0567363 	1.73095e-19 2.79199 	-0.0556483 	1.72016e-19 2.79369 	-0.0545615 	1.70966e-19 2.79543 	-0.0534761 	1.69943e-19 2.79609 	-0.0524598 	1.0249e-19 2.79895 	-0.051213 	8.75822e-20 2.80049 	-0.0502014 	5.31485e-20 2.80206 	-0.0491908 	1.87094e-20 2.80366 	-0.0481813 	-1.57351e-20 2.8043 	-0.0472272 	-4.66899e-20 2.80687 	-0.0460961 	-9.02048e-20 2.80829 	-0.0451573 	-8.8997e-20 2.80973 	-0.0442195 	-8.78229e-20 2.81121 	-0.0432825 	-8.66827e-20 2.81181 	-0.0423899 	-3.70512e-20 2.81413 	-0.0413633 	-4.95324e-20 2.81543 	-0.0404939 	-3.17116e-20 2.81675 	-0.0396253 	-1.39088e-20 2.8181 	-0.0387575 	3.87624e-21 2.81867 	-0.0379251 	4.31041e-20 2.82075 	-0.0369931 	4.98642e-20 2.82193 	-0.0361897 	6.73353e-20 2.82314 	-0.035387 	8.47981e-20 2.82437 	-0.034585 	1.02253e-19 2.8249 	-0.0338113 	1.22067e-19 2.82677 	-0.0329651 	1.46224e-19 2.82785 	-0.0322244 	1.37001e-19 2.82894 	-0.0314842 	1.278e-19 2.83006 	-0.0307446 	1.1862e-19 2.83055 	-0.0300279 	8.16898e-20 2.83223 	-0.0292594 	5.80655e-20 2.83321 	-0.0285781 	3.23172e-20 2.8342 	-0.0278972 	6.56711e-21 2.83521 	-0.0272168 	-1.91848e-20 2.83564 	-0.0265549 	-4.10471e-20 2.83717 	-0.0258574 	-5.61571e-20 2.83804 	-0.0252322 	-3.83829e-20 2.83893 	-0.0246073 	-2.06348e-20 2.83985 	-0.0239829 	-2.9128e-21 2.84023 	-0.0233737 	4.84815e-20 2.8416 	-0.0227407 	1.02305e-19 2.84239 	-0.0221685 	1.09985e-19 2.84319 	-0.0215966 	1.17709e-19 2.84401 	-0.021025 	1.25476e-19 2.84433 	-0.020466 	8.86209e-20 2.84558 	-0.019892 	7.18008e-20 2.84628 	-0.0193697 	6.32571e-20 2.84699 	-0.0188476 	5.47093e-20 2.84773 	-0.0183258 	4.61574e-20 2.84798 	-0.0178147 	3.76081e-20 2.84912 	-0.0172946 	1.44198e-20 2.84974 	-0.0168193 	1.47677e-20 2.85038 	-0.0163441 	1.50929e-20 2.85103 	-0.0158691 	1.53956e-20 2.85122 	-0.0154032 	4.14752e-20 2.85227 	-0.0149326 	3