# vtk DataFile Version 2.0
track0
ASCII
DATASET POLYDATA
POINTS 12278 float
-0.0205 0.001 1e-05
-0.02052 0.000999216 1e-05
-0.02054 0.000998592 1e-05
-0.02056 0.000998126 1e-05
-0.02058 0.000997818 1e-05
-0.0206 0.000997665 1e-05
-0.0205 0.00367778 1e-05
-0.02052 0.00367703 1e-05
-0.02054 0.00367643 1e-05
-0.02056 0.00367599 1e-05
-0.02058 0.00367569 1e-05
-0.0206 0.00367554 1e-05
-0.0205 0.00635556 1e-05
-0.02052 0.00635527 1e-05
-0.02054 0.00635505 1e-05
-0.02056 0.00635488 1e-05
-0.02058 0.00635476 1e-05
-0.0206 0.00635471 1e-05
-0.0205 0.00903333 1e-05
-0.02052 0.00903311 1e-05
-0.02054 0.00903293 1e-05
-0.02056 0.0090328 1e-05
-0.02058 0.00903271 1e-05
-0.0206 0.00903266 1e-05
-0.0205 0.0117111 1e-05
-0.02052 0.0117111 1e-05
-0.02054 0.011711 1e-05
-0.02056 0.011711 1e-05
-0.02058 0.011711 1e-05
-0.0206 0.011711 1e-05
-0.0205 0.0143889 1e-05
-0.02052 0.014389 1e-05
-0.02054 0.014389 1e-05
-0.02056 0.0143891 1e-05
-0.02058 0.0143891 1e-05
-0.0206 0.0143891 1e-05
-0.0205 0.0170667 1e-05
-0.02052 0.017067 1e-05
-0.02054 0.0170672 1e-05
-0.02056 0.0170674 1e-05
-0.02058 0.0170675 1e-05
-0.0206 0.0170676 1e-05
-0.0205 0.0197444 1e-05
-0.02052 0.019745 1e-05
-0.02054 0.0197454 1e-05
-0.02056 0.0197457 1e-05
-0.02058 0.0197459 1e-05
-0.0206 0.019746 1e-05
-0.0205 0.0224222 1e-05
-0.02052 0.022423 1e-05
-0.02054 0.0224236 1e-05
-0.02056 0.0224241 1e-05
-0.02058 0.0224244 1e-05
-0.0206 0.0224245 1e-05
-0.0205 0.0251 1e-05
-0.02052 0.0251003 1e-05
-0.02054 0.0251005 1e-05
-0.02056 0.0251007 1e-05
-0.02058 0.0251008 1e-05
-0.0206 0.0251008 1e-05
-0.0205 0.001 1e-05
-0.0203632 0.00100536 1e-05
-0.0202266 0.00101331 1e-05
-0.0200901 0.00102296 1e-05
-0.0200427 0.00102682 1e-05
-0.0198376 0.00104418 1e-05
-0.0196338 0.00107322 1e-05
-0.0194327 0.00111734 1e-05
-0.0192368 0.00118024 1e-05
-0.0190172 0.00124951 1e-05
-0.0189002 0.00128348 1e-05
-0.0187827 0.00131598 1e-05
-0.0186649 0.001347 1e-05
-0.0185469 0.001377 1e-05
-0.0183807 0.00141936 1e-05
-0.0182041 0.00146458 1e-05
-0.0180267 0.00150692 1e-05
-0.0178487 0.0015464 1e-05
-0.0176703 0.00158389 1e-05
-0.0174976 0.00161991 1e-05
-0.0172846 0.00166394 1e-05
-0.0170715 0.00170741 1e-05
-0.0168583 0.00175029 1e-05
-0.0166449 0.00179219 1e-05
-0.0163945 0.00184007 1e-05
-0.0163234 0.00185324 1e-05
-0.0162522 0.00186629 1e-05
-0.016181 0.00187921 1e-05
-0.0161097 0.00189201 1e-05
-0.0160387 0.0019046 1e-05
-0.0157586 0.0019535 1e-05
-0.0154779 0.00199931 1e-05
-0.0151968 0.00204225 1e-05
-0.0149154 0.00208283 1e-05
-0.0146381 0.00212134 1e-05
-0.0143838 0.00215527 1e-05
-0.0141293 0.00218766 1e-05
-0.0138747 0.00221855 1e-05
-0.0136198 0.00224797 1e-05
-0.0132934 0.00228369 1e-05
-0.0132791 0.00228515 1e-05
-0.0132648 0.0022866 1e-05
-0.0132504 0.00228805 1e-05
-0.0132361 0.0022895 1e-05
-0.0132214 0.00229098 1e-05
-0.0129776 0.00231543 1e-05
-0.0127337 0.00233865 1e-05
-0.0124897 0.00236061 1e-05
-0.0122456 0.0023813 1e-05
-0.0120025 0.00240058 1e-05
-0.0117547 0.00241909 1e-05
-0.0115067 0.00243627 1e-05
-0.0112587 0.00245231 1e-05
-0.0110106 0.00246734 1e-05
-0.0107632 0.00248136 1e-05
-0.0105252 0.00249391 1e-05
-0.0102872 0.00250547 1e-05
-0.0100491 0.00251602 1e-05
-0.00981105 0.00252575 1e-05
-0.00957337 0.00253472 1e-05
-0.00934491 0.00254261 1e-05
-0.00911643 0.00254974 1e-05
-0.00888792 0.00255611 1e-05
-0.0086594 0.00256172 1e-05
-0.00843108 0.00256669 1e-05
-0.00821175 0.00257085 1e-05
-0.00799241 0.00257439 1e-05
-0.00777306 0.00257731 1e-05
-0.0075537 0.00257953 1e-05
-0.00733443 0.00258115 1e-05
-0.00712387 0.00258213 1e-05
-0.0069133 0.00258256 1e-05
-0.00670273 0.00258244 1e-05
-0.00649216 0.00258163 1e-05
-0.0062816 0.00258018 1e-05
-0.00607944 0.0025782 1e-05
-0.0058773 0.00257566 1e-05
-0.00567516 0.00257257 1e-05
-0.00547303 0.00256875 1e-05
-0.00527083 0.0025642 1e-05
-0.00507675 0.00255913 1e-05
-0.00488269 0.00255344 1e-05
-0.00468865 0.00254712 1e-05
-0.00449464 0.00253999 1e-05
-0.00430044 0.00253192 1e-05
-0.00411412 0.0025233 1e-05
-0.00392784 0.0025139 1e-05
-0.00374159 0.0025037 1e-05
-0.0035554 0.00249256 1e-05
-0.00336883 0.00248018 1e-05
-0.00318995 0.00246713 1e-05
-0.00301115 0.00245301 1e-05
-0.00283245 0.00243776 1e-05
-0.00265386 0.00242123 1e-05
-0.00247443 0.00240316 1e-05
-0.0023027 0.00238428 1e-05
-0.00213114 0.00236386 1e-05
-0.00195982 0.00234156 1e-05
-0.00178875 0.00231741 1e-05
-0.00161577 0.00229108 1e-05
-0.00161565 0.00229106 1e-05
-0.00161552 0.00229104 1e-05
-0.00161539 0.00229102 1e-05
-0.00161527 0.002291 1e-05
-0.00161514 0.00229098 1e-05
-0.0014504 0.00226408 1e-05
-0.00128605 0.00223482 1e-05
-0.00112214 0.00220327 1e-05
-0.000958664 0.00216949 1e-05
-0.000791418 0.00213239 1e-05
-0.000633135 0.00209428 1e-05
-0.000475556 0.00205335 1e-05
-0.000318719 0.00200967 1e-05
-0.000162834 0.0019627 1e-05
0 0.00190955 1e-05
3.73576e-05 0.00189634 1e-05
7.46152e-05 0.00188286 1e-05
0.000111774 0.0018691 1e-05
0.000148836 0.00185509 1e-05
0.000179156 0.00184338 1e-05
0.000249002 0.00181594 1e-05
0.000318438 0.00178749 1e-05
0.000387448 0.00175802 1e-05
0.000456019 0.00172754 1e-05
0.000528387 0.00169417 1e-05
0.000634886 0.00164319 1e-05
0.000740278 0.00158996 1e-05
0.00084451 0.00153449 1e-05
0.00094762 0.00147697 1e-05
0.00101994 0.00143469 1e-05
0.00102813 0.00142974 1e-05
0.00103631 0.00142477 1e-05
0.00104448 0.0014198 1e-05
0.00105264 0.0014148 1e-05
0.00106088 0.00140974 1e-05
0.00116821 0.00134355 1e-05
0.00127404 0.00127499 1e-05
0.00137827 0.00120404 1e-05
0.00148099 0.00113091 1e-05
0.00159675 0.00104511 1e-05
0.0015969 0.00104499 1e-05
0.00159705 0.00104487 1e-05
0.00159721 0.00104475 1e-05
0.00159736 0.00104463 1e-05
0.00159752 0.00104451 1e-05
0.00169219 0.000970931 1e-05
0.00178547 0.000895587 1e-05
0.00187726 0.000818445 1e-05
0.00196764 0.000739647 1e-05
0.00203804 0.000676367 1e-05
0.0020581 0.000657885 1e-05
0.00207807 0.000639313 1e-05
0.00209796 0.000620651 1e-05
0.00211779 0.000601927 1e-05
0.00213833 0.00058242 1e-05
0.00219147 0.000531595 1e-05
0.00224411 0.000480253 1e-05
0.00229624 0.000428386 1e-05
0.00234784 0.000375987 1e-05
0.00239414 0.000328255 1e-05
0.00245198 0.000267801 1e-05
0.00250919 0.000206748 1e-05
0.00256576 0.000145111 1e-05
0.00262183 8.30087e-05 1e-05
0.00268334 1.36947e-05 1e-05
0.00268572 1.09557e-05 1e-05
0.0026881 8.21579e-06 1e-05
0.00269048 5.47481e-06 1e-05
0.00269286 2.73281e-06 1e-05
0.00269523 0 1e-05
0.00275913 -7.37368e-05 1e-05
0.00282241 -0.000148005 1e-05
0.00288505 -0.000222813 1e-05
0.00294702 -0.000298173 1e-05
0.00300409 -0.000368654 1e-05
0.00304979 -0.000425926 1e-05
0.00309518 -0.000483444 1e-05
0.00314026 -0.000541203 1e-05
0.00318509 -0.000599158 1e-05
0.00323259 -0.000661125 1e-05
0.00325064 -0.000684919 1e-05
0.00326864 -0.000708752 1e-05
0.00328659 -0.000732626 1e-05
0.00330448 -0.00075654 1e-05
0.00332204 -0.00078009 1e-05
0.00339018 -0.000871877 1e-05
0.00345772 -0.000964107 1e-05
0.00352464 -0.00105679 1e-05
0.00359101 -0.00114986 1e-05
0.00365387 -0.00123896 1e-05
0.00368032 -0.00127684 1e-05
0.00370669 -0.00131478 1e-05
0.00373299 -0.00135276 1e-05
0.00375923 -0.00139079 1e-05
0.00378611 -0.00142985 1e-05
0.0038301 -0.00149397 1e-05
0.00387387 -0.00155824 1e-05
0.00391742 -0.00162266 1e-05
0.00396075 -0.00168724 1e-05
0.00400291 -0.00175044 1e-05
0.00407111 -0.00185326 1e-05
0.0041389 -0.00195636 1e-05
0.00420626 -0.00205974 1e-05
0.00427334 -0.00216331 1e-05
0.00434393 -0.00227298 1e-05
0.00434998 -0.00228244 1e-05
0.00435603 -0.00229191 1e-05
0.00436207 -0.00230138 1e-05
0.00436811 -0.00231085 1e-05
0.00437413 -0.0023203 1e-05
0.00445498 -0.00244725 1e-05
0.00453537 -0.00257449 1e-05
0.00461537 -0.00270197 1e-05
0.00469501 -0.00282968 1e-05
0.00477288 -0.00295498 1e-05
0.00479953 -0.00299799 1e-05
0.00482614 -0.00304103 1e-05
0.00485273 -0.00308408 1e-05
0.00487931 -0.00312713 1e-05
0.00490609 -0.00317051 1e-05
0.00496672 -0.00326873 1e-05
0.00502721 -0.00336705 1e-05
0.00508755 -0.00346546 1e-05
0.00514775 -0.00356395 1e-05
0.0052074 -0.00366161 1e-05
0.00526044 -0.00374852 1e-05
0.00531345 -0.00383545 1e-05
0.00536641 -0.00392241 1e-05
0.0054194 -0.00400936 1e-05
0.00547262 -0.00409656 1e-05
0.00551559 -0.00416687 1e-05
0.00555853 -0.0042372 1e-05
0.00560143 -0.00430756 1e-05
0.00564432 -0.00437792 1e-05
0.00568714 -0.00444811 1e-05
0.00575842 -0.00456487 1e-05
0.00582975 -0.00468159 1e-05
0.00590113 -0.00479829 1e-05
0.00597264 -0.00491491 1e-05
0.00604356 -0.00503009 1e-05
0.0060798 -0.00508872 1e-05
0.00611606 -0.00514735 1e-05
0.00615232 -0.00520597 1e-05
0.00618861 -0.00526458 1e-05
0.006225 -0.00532326 1e-05
0.00630378 -0.00545005 1e-05
0.00638276 -0.00557672 1e-05
0.00646193 -0.00570326 1e-05
0.00654138 -0.00582964 1e-05
0.00661893 -0.0059522 1e-05
0.00666281 -0.0060211 1e-05
0.00670675 -0.00608997 1e-05
0.00675074 -0.0061588 1e-05
0.00679481 -0.00622758 1e-05
0.00683926 -0.00629671 1e-05
0.00691116 -0.00640816 1e-05
0.00698332 -0.00651944 1e-05
0.00705574 -0.00663055 1e-05
0.00712844 -0.00674147 1e-05
0.00719878 -0.00684797 1e-05
0.00726944 -0.00695418 1e-05
0.00734032 -0.00706025 1e-05
0.00741142 -0.00716616 1e-05
0.00748284 -0.00727187 1e-05
0.00755578 -0.00737909 1e-05
0.00760125 -0.00744544 1e-05
0.00764685 -0.00751171 1e-05
0.00769258 -0.00757789 1e-05
0.00773843 -0.00764398 1e-05
0.00778313 -0.00770806 1e-05
0.00790091 -0.00787604 1e-05
0.00801946 -0.00804349 1e-05
0.00813878 -0.00821038 1e-05
0.0082591 -0.00837655 1e-05
0.00837203 -0.00853047 1e-05
0.00837968 -0.00854075 1e-05
0.00838733 -0.00855103 1e-05
0.00839499 -0.00856131 1e-05
0.00840264 -0.00857159 1e-05
0.00841033 -0.00858189 1e-05
0.00852136 -0.00873062 1e-05
0.00863322 -0.00887874 1e-05
0.00874593 -0.00902621 1e-05
0.0088595 -0.00917302 1e-05
0.00896551 -0.00930819 1e-05
0.00903005 -0.00938942 1e-05
0.00909484 -0.00947043 1e-05
0.00915991 -0.00955124 1e-05
0.00922527 -0.00963179 1e-05
0.0092928 -0.00971438 1e-05
0.00934696 -0.00978009 1e-05
0.00940132 -0.00984563 1e-05
0.00945587 -0.00991101 1e-05
0.00951062 -0.00997623 1e-05
0.0095636 -0.0100389 1e-05
[...]
POINT_DATA 12278
 FIELD attributes 2
p 1 12278 float
177015 177096 177169 177232 177286 177331
108948 108966 108982 108997 109009 109019
87754.7 87764.2 87773.6 87782.7 87791.7 87800.1
79936.9 79943.2 79949.5 79955.6 79961.7 79967.6
77146 77155.3 77164.5 77173.7 77182.9 77192.1
77563.4 77577 77590.6 77604.1 77617.7 77631.2
81096.6 81109 81121.3 81133.4 81145.3 81157
90923.1 90942.8 90961.8 90980.1 90997.7 91014.6
117355 117388 117418 117446 117472 117496
215474 215284 215092 214898 214702 214504
177015 173409 169082 164504 162838 158906 155523 152873 144707 134666 129223 123795 119856 119246 118394 112348 106449 102328 101432 100565 99583 98600.8 97174.1 95705.8 93990.2 93623.7 93256.7 92889.2 92408.2 91910.5 89990.9 88187 86673 85885.7 85108.9 84423.1 83758.4 83108.6 82456.8 81622.9 81587.9 81559 81531 81502.9 81474.1 80941.4 80409.1 79877.3 79345.9 78920.9 78494.6 78085.5 77687.8 77312.2 76946.2 76596.3 76246 75922.2 75620.8 75319.7 75030.2 74740.6 74462 74199.2 73936.6 73683 73429.2 73179.2 72943 72707 72478 72249.1 72018.6 71799.1 71579.9 71366.3 71152.8 70934.1 70723.3 70512.6 70305.5 70098.5 69885.6 69673.2 69461 69249.1 69037.6 68822.4 68594.4 68366.8 68133.9 67898.2 67654.2 67401.5 67135.6 66855.3 66541.6 66229.4 65918.8 65605.8 65605.5 65605.2 65604.9 65604.5 65604.2 65213 64827.6 64447.8 64049.7 63569.7 63054.2 62544.5 61843.5 61070.4 60257.3 60009 59770.9 59543.8 59317.2 59131.8 58575.1 58016.1 57455 56981.9 56513.6 55909.1 55306.4 54766.6 54225.5 53840.8 53782.7 53724.6 53669.3 53621.8 53573.6 53020.5 52460.1 51942.1 51469.8 50924.2 50923.2 50922.2 50921.3 50920.6 50919.8 50492.7 50058 49655.5 49320 49051 48951.8 48852.2 48781.4 48711.7 48639.2 48450.7 48259.9 48067.2 47922.8 47790.7 47618 47449.4 47309.7 47168.1 47008.8 47002.3 46995.9 46989.5 46983.6 46978.1 46872.8 46760.5 46645.8 46532.5 46425.6 46390 46353.3 46313.7 46273.4 46229.6 46209.4 46189.1 46168.7 46147.5 46126.4 46101.1 46074.3 46037.3 45995 45953.4 45955.8 45958 45957.3 45956.4 45955.5 45944.2 45932.5 45920.3 45905.3 45890.1 45899.9 45909 45913.5 45917.5 45921.2 45920.3 45919.5 45918.6 45917.6 45916.5 45930 45943.6 45956.3 45967 45977.3 45987.6 45997.8 46007.6 46017.3 46027.1 46038.6 46050 46061.3 46072.3 46083.2 46101.7 46120.1 46138.5 46157 46175.7 46184.2 46192.8 46201.5 46210.6 46219.7 46242.4 46265.1 46288.4 46312.3 46336.1 46343.5 46350.9 46358.6 46366.9 46375.2 46398.4 46421.7 46445.8 46471.1 46495.8 46504.7 46513.7 46523.3 46533.5 46543.8 46563.5 46583.2 46603.6 46625.5 46646.8 46660.6 46674.6 46690.2 46706.5 46723.2 46734.8 46746.3 46758 46770.7 46783.1 46805 46827.2 46852.6 46878.8 46904.7 46905.8 46906.9 46908.3 46909.7 46911.1 46932.2 46953.7 46975.4 46999.3 47021.7 47031.2 47040.8 47051.8 47062.8 47074.3 47084 47093.7 47103.5 47113.9 47124.1 47141.3 47158.6 47177.5 47197.4 47216.7 47219.3 47221.9 47224.9 47227.8 47230.8 47245.1 47259.6 47274.1 47289.7 47304.6 47318.4 47332.5 47348 47363.6 47380.4 47380.5 47380.6 47380.7 47380.8 47380.9 47395.5 47410.2 47425.1 47440.9 47456.2 47468.2 47480.8 47494.4 47508.1 47521.2 47521.8 47522.4 47523.1 47523.8 47524.4 47536.2 47548.1 47560 47572.6 47585.1 47595.4 47605.7 47617.4 47629.6 47641.6 47645.6 47650 47654.6 47659.3 47664.1 47670 47675.9 47681.8 47687.9 47694.3 47703.1 47712.2 47722 47732.9 47743.3 47750.9 47759 47767.9 47776.8 47786 47788.1 47790.6 47793.1 47795.6 47798.2 47803.6 47809 47814.4 47819.9 47825.9 47832.2 47838.7 47845.6 47853.7 47861.5 47866.6 47871.6 47877.9 47884.5 47891.2 47894.8 47899.5 47904.2 47908.8 47914.1 47914.3 47914.6 47914.8 47915.1 47915.4 47919.5 47923.7 47927.8 47931.9 47937 47939.3 47941.8 47944.8 47948.7 47952.6 47953.7 47954.8 47956.7 47959.5 47962.2 47962.1 47962.6 47963.5 47964.3 47965.8 47964.9 47964.7 47964.4 47964.1 47963.7 47963.7 47963.7 47963.6 47963.6 47963.7 47962.3 47961 47959.6 47958.2 47957.4 47954.2 47951.7 47949.1 47946.8 47945 47940.7 47936.4 47932.6 47929.6 47926.5 47921 47915.5 47910.5 47906.2 47902 47895.3 47888.8 47882.7 47877 47871.5 47863.8 47856.4 47849.1 47841.9 47835.2 47826.5 47818.1 47809.7 47801.3 47793.2 47784.6 47776.2 47767.8 47759.3 47749.5 47748.7 47748 47747.2 47746.5 47745.7 47735.3 47724.9 47714.4 47703.9 47693.6 47681.8 47670.3 47658.8 47647.3 47636 47623.1 47610.6 47598.1 47585.6 47573.3 47559.3 47545.7 47532.2 47518.8 47505.6 47490.7 47476 47461.6 47447.3 47433 47417.3 47401.5 47386.3 47371.1 47355.9 47339.3 47322.7 47306.5 47290.4 47274.3 47257 47239.6 47222.5 47205.5 47188.6 47170.5 47152.4 47134.4 47116.6 47098.9 47080.1 47061.3 47042.4 47023.9 47005.4 46985.9 46966.4 46946.8 46927.5 46908.3 46888.2 46868 46847.8 46827.7 46807.8 46787.1 46766.3 46745.5 46724.7 46704.2 46682.8 46661.4 46640 46618.6 46597.5 46575.6 46553.6 46531.6 46509.7 46487.9 46465.5 46443 46420.5 46398 46375.7 46352.8 46329.8 46306.8 46283.8 46260.9 46237.6 46214.1 46190.7 46167.2 46143.8 46120.1 46096.2 46072.3 46048.3 46024.5 46000.3 45976 45951.7 45927.4 45903.1 45878.6 45853.8 45829.1 45804.4 45779.8 45754.8 45729.8 45704.7 45679.6 45654.6 45629.3 45603.9 45578.5 45553.1 45527.8 45502.1 45476.4 45450.7 45424.9 45399.3 45373.3 45347.3 45321.3 45295.2 45269.2 45243 45216.7 45190.4 45164.1 45137.8 45111.3 45084.7 45058.2 45031.6 45005 44978.3 44951.4 44924.6 44897.8 44871 44844 44816.9 44789.8 44762.8 44735.7 44708.5 44681.2 44653.9 44626.6 44599.3 44571.8 44544.3 44516.8 44489.3 44461.8 44434.1 44406.4 44378.7 44351 44323.3 44295.4 44267.5 44239.6 44211.6 44183.7 44155.6 44127.5 44099.4 44071.3 44043.2 44014.9 43986.6 43958.3 43930 43901.7 43873.3 43844.8 43816.3 43787.9 43759.4 43730.7 43702.1 43673.4 43644.8 43616.1 43587.3 43558.5 43529.6 43500.8 43472 43443 43414 43385 43355.9 43326.9 43297.8 43268.6 43239.4 43210.2 43181.1 43151.7 43122.4 43093 43063.7 43034.3 43004.8 42975.3 42945.8 42916.3 42886.7 42857.1 42827.4 42797.7 42768 42738.3 42708.5 42678.6 42648.7 42618.9 42589 42559 42528.9 42498.9 42468.9 42438.8 42408.6 42378.4 42348.2 42318 42287.8 42257.4 42227 42196.6 42166.2 42135.8 42105.3 42074.7 42044.2 42013.6 41983 41952.3 41921.5 41890.8 41860 41829.3 41798.4 41767.4 41736.5 41705.6 41674.6 41643.5 41612.4 41581.3 41550.1 41519 41487.7 41456.4 41425.1 41393.8 41362.4 41330.9 41299.4 41267.9 41236.4 41204.9 41173.2 41141.5 41109.8 41078.1 41046.3 41014.5 40982.5 40950.6 40918.7 40886.8 40854.7 40822.6 40790.5 40758.3 40726.2 40693.9 40661.6 40629.2 40596.9 40564.5 40532 40499.5 40467 40434.4 40401.8 40369.1 40336.3 40303.6 40270.8 40238 40205.1 40172.1 40139.1 40106.1 40073.1 40039.9 40006.7 39973.5 39940.3 39907 39873.6 39840.2 39806.8 39773.3 39739.8 39706.2 39672.5 39638.9 39605.2 39571.4 39537.6 39503.7 39469.8 39435.9 39401.9 39367.8 39333.6 39299.5 39265.3 39231.1 39196.8 39162.4 39128 39093.6 39059.1 39024.5 38989.9 38955.2 38920.6 38885.9 38851 38816.1 38781.2 38746.3 38711.3 38676.3 38641.1 38605.9 38570.8 38535.5 38500.2 38464.8 38429.4 38393.9 38358.4 38322.8 38287.2 38251.5 38215.8 38180 38144.2 38108.2 38072.3 38036.3 38000.3 37964.1 37927.9 37891.7 37855.5 37819.2 37782.8 37746.3 37709.8 37673.3 37636.7 37600 37563.3 37526.5 37489.7 37452.9 37415.9 37378.9 37341.8 37304.8 37267.6 37230.4 37193.1 37155.7 37118.4 37081 37043.4 37005.9 36968.2 36930.6 36892.9 36855.1 36817.2 36779.3 36741.4 36703.4 36665.3 36627.1 36588.9 36550.7 36512.4 36474 36435.5 36397 36358.5 36319.9 36281.2 36242.5 36203.7 36164.9 36126 36087 36048 36008.9 35969.7 35930.6 35891.3 35851.9 35812.5 35773.1 35733.6 35694 35654.4 35614.7 35574.9 35535.2 35495.2 35455.3 35415.3 35375.2 35335.2 35294.9 35254.7 35214.3 35174 35133.6 35093.1 35052.5 35011.9 34971.2 34930.5 34889.6 34848.7 34807.8 34766.8 34725.8 34684.6 34643.4 34602.1 34560.8 34519.5 34478 34436.4 34394.9 34353.2 34311.6 34269.7 34227.9 34186 34144 34102.1 34059.9 34017.7 33975.5 33933.2 33890.9 33848.4 33805.9 33763.4 33720.7 33678.1 33635.3 33592.5 33549.6 33506.6 33463.7 33420.5 33377.4 33334.1 33290.8 33247.5 33204.1 33160.6 33117 33073.4 33029.7 32985.9 32942.1 32898.2 32854.2 32810.3 32766.1 32721.9 32677.7 32633.4 32589 32544.5 32500 32455.4 32410.8 32366.1 32321.3 32276.4 32231.5 32186.5 32141.5 32096.3 32051 32005.8 31960.4 31915 31869.5 31823.9 31778.3 31732.6 31686.9 31641 31595 31549.1 31503 31456.9 31410.6 31364.4 31318 31271.6 31225.2 31178.5 31131.9 31085.2 31038.4 30991.6 30944.6 30897.6 30850.6 30803.4 30756.3 30708.9 30661.5 30614.1 30566.6 30519.1 30471.3 30423.6 30375.8 30327.9 30280 30231.9 30183.8 30135.6 30087.3 30039.1 29990.6 29942.1 29893.6 29844.9 29796.3 29747.4 29698.6 29649.6 29600.6 29551.6 29502.3 29453.1 29403.8 29354.4 29305 29255.3 29205.7 29156 29106.2 29056.4 29006.4 28956.4 28906.3 28856.1 28805.9 28755.5 28705.1 28654.6 28604 28553.4 28502.6 28451.8 28400.9 28349.9 28298.9 28247.7 28196.5 28145.2 28093.8 28042.5 27990.8 27939.2 27887.5 27835.7 27783.9 27731.9 27679.8 27627.7 27575.5 27523.3 27470.9 27418.4 27365.9 27313.3 27260.6 27207.8 27154.9 27101.9 27048.9 26995.9 26942.6 26889.2 26835.9 26782.4 26729 26675.2 26621.5 26567.7 26513.8 26459.9 26405.8 26351.6 26297.4 26243.1 26188.8 26134.3 26079.7 26025.1 25970.4 25915.7 25860.7 25805.7 25750.7 25695.7 25640.6 25585.2 25529.9 25474.6 25419.2 25363.8 25308.1 25252.5 25196.9 25141.2 25085.6 25029.7 24973.9 24918.2 24862.4 24806.7 24750.8 24695 24639.3 24583.7 24528 24472.3 24417 24361.9 24306.8 24252.1 24197.4 24142.4 24087.4 24032.5 23977.1 23922.4 23873.7 23825.1 23776.4 23732.7 23683.5 23618.2 23552.7 23487.2 23412.7 23361.5 23331.1 23301 23271.3 23257.1 23252.9 23248.7 23244.6 23240.4 23238.9 23236.3 23231 23225.8 23220.5 23214.8 23187.8 23160.6 23133.2 23105.5 23061.9 22986 22917 22848.1 22779.2 22722.9 22671.8 22615.5 22559.1 22502.7 22440.1 22372.3 22304.2 22236.1 22168 22099.6 22028.3 21955 21881.8 21808.6 21733.2 21655 21575.2 21495.4 21415.6 21334.2 21249.9 21163.8 21077.6 20991.5 20903.5 20812.5 20719.6 20626.6 20533.6 20438.8 20340.7 20240.5 20140.2 20039.8 19937.5 19831.6 19723.4 19615.1 19506.7 19396.2 19281.9 19164.8 19047.6 18930.3 18810.5 18686.5 18559.7 18432.8 18305.8 18176.4 18042.3 17904.4 17766.2 17627.9 17486 17339 17189.3 17039.5 16889.5 16737.3 16579.5 16414.9 16250 16084.7 15913.3 15735.5 15557.4 15379.2 15201.1 15023 14838.4 14638.9 14438.5 14237.4 14022.2 13799 13585.9 13373.4 13161.4 12960.1 12751.2 12503.7 12254 12002.1 11712.8 11412.6 11157.3 10904.8 10655 10450.3 10237.7 9921.7 9598.12 9265.96 8833.28 8384.29 8071.53 7773.92 7494.33 7349.23 7198.2 6801.72 6357.26 5839.02 5089.65 4311.36 3779.2 3398.28 3250.94 3316.67 3382.97 3362.04 2777.14 1388.16 0