# vtk DataFile Version 2.0
track0
ASCII
DATASET POLYDATA
POINTS 12278 float
-0.0205 0.001 1e-05
-0.02052 0.000999216 1e-05
-0.02054 0.000998592 1e-05
-0.02056 0.000998126 1e-05
-0.02058 0.000997818 1e-05
-0.0206 0.000997665 1e-05
-0.0205 0.00367778 1e-05
-0.02052 0.00367703 1e-05
-0.02054 0.00367643 1e-05
-0.02056 0.00367599 1e-05
-0.02058 0.00367569 1e-05
-0.0206 0.00367554 1e-05
-0.0205 0.00635556 1e-05
-0.02052 0.00635527 1e-05
-0.02054 0.00635505 1e-05
-0.02056 0.00635488 1e-05
-0.02058 0.00635476 1e-05
-0.0206 0.00635471 1e-05
-0.0205 0.00903333 1e-05
-0.02052 0.00903311 1e-05
-0.02054 0.00903293 1e-05
-0.02056 0.0090328 1e-05
-0.02058 0.00903271 1e-05
-0.0206 0.00903266 1e-05
-0.0205 0.0117111 1e-05
-0.02052 0.0117111 1e-05
-0.02054 0.011711 1e-05
-0.02056 0.011711 1e-05
-0.02058 0.011711 1e-05
-0.0206 0.011711 1e-05
-0.0205 0.0143889 1e-05
-0.02052 0.014389 1e-05
-0.02054 0.014389 1e-05
-0.02056 0.0143891 1e-05
-0.02058 0.0143891 1e-05
-0.0206 0.0143891 1e-05
-0.0205 0.0170667 1e-05
-0.02052 0.017067 1e-05
-0.02054 0.0170672 1e-05
-0.02056 0.0170674 1e-05
-0.02058 0.0170675 1e-05
-0.0206 0.0170676 1e-05
-0.0205 0.0197444 1e-05
-0.02052 0.019745 1e-05
-0.02054 0.0197454 1e-05
-0.02056 0.0197457 1e-05
-0.02058 0.0197459 1e-05
-0.0206 0.019746 1e-05
-0.0205 0.0224222 1e-05
-0.02052 0.022423 1e-05
-0.02054 0.0224236 1e-05
-0.02056 0.0224241 1e-05
-0.02058 0.0224244 1e-05
-0.0206 0.0224245 1e-05
-0.0205 0.0251 1e-05
-0.02052 0.0251003 1e-05
-0.02054 0.0251005 1e-05
-0.02056 0.0251007 1e-05
-0.02058 0.0251008 1e-05
-0.0206 0.0251008 1e-05
-0.0205 0.001 1e-05
-0.0203632 0.00100536 1e-05
-0.0202266 0.00101331 1e-05
-0.0200901 0.00102296 1e-05
-0.0200427 0.00102682 1e-05
-0.0198376 0.00104418 1e-05
-0.0196338 0.00107322 1e-05
-0.0194327 0.00111734 1e-05
-0.0192368 0.00118024 1e-05
-0.0190172 0.00124951 1e-05
-0.0189002 0.00128348 1e-05
-0.0187827 0.00131598 1e-05
-0.0186649 0.001347 1e-05
-0.0185469 0.001377 1e-05
-0.0183807 0.00141936 1e-05
-0.0182041 0.00146458 1e-05
-0.0180267 0.00150692 1e-05
-0.0178487 0.0015464 1e-05
-0.0176703 0.00158389 1e-05
-0.0174976 0.00161991 1e-05
-0.0172846 0.00166394 1e-05
-0.0170715 0.00170741 1e-05
-0.0168583 0.00175029 1e-05
-0.0166449 0.00179219 1e-05
-0.0163945 0.00184007 1e-05
-0.0163234 0.00185324 1e-05
-0.0162522 0.00186629 1e-05
-0.016181 0.00187921 1e-05
-0.0161097 0.00189201 1e-05
-0.0160387 0.0019046 1e-05
-0.0157586 0.0019535 1e-05
-0.0154779 0.00199931 1e-05
-0.0151968 0.00204225 1e-05
-0.0149154 0.00208283 1e-05
-0.0146381 0.00212134 1e-05
-0.0143838 0.00215527 1e-05
-0.0141293 0.00218766 1e-05
-0.0138747 0.00221855 1e-05
-0.0136198 0.00224797 1e-05
-0.0132934 0.00228369 1e-05
-0.0132791 0.00228515 1e-05
-0.0132648 0.0022866 1e-05
-0.0132504 0.00228805 1e-05
-0.0132361 0.0022895 1e-05
-0.0132214 0.00229098 1e-05
-0.0129776 0.00231543 1e-05
-0.0127337 0.00233865 1e-05
-0.0124897 0.00236061 1e-05
-0.0122456 0.0023813 1e-05
-0.0120025 0.00240058 1e-05
-0.0117547 0.00241909 1e-05
-0.0115067 0.00243627 1e-05
-0.0112587 0.00245231 1e-05
-0.0110106 0.00246734 1e-05
-0.0107632 0.00248136 1e-05
-0.0105252 0.00249391 1e-05
-0.0102872 0.00250547 1e-05
-0.0100491 0.00251602 1e-05
-0.00981105 0.00252575 1e-05
-0.00957337 0.00253471 1e-05
-0.00934491 0.00254261 1e-05
-0.00911643 0.00254974 1e-05
-0.00888792 0.00255611 1e-05
-0.0086594 0.00256172 1e-05
-0.00843108 0.00256669 1e-05
-0.00821175 0.00257085 1e-05
-0.00799241 0.00257439 1e-05
-0.00777306 0.00257731 1e-05
-0.0075537 0.00257953 1e-05
-0.00733443 0.00258115 1e-05
-0.00712387 0.00258213 1e-05
-0.0069133 0.00258256 1e-05
-0.00670273 0.00258244 1e-05
-0.00649216 0.00258162 1e-05
-0.0062816 0.00258018 1e-05
-0.00607944 0.0025782 1e-05
-0.0058773 0.00257566 1e-05
-0.00567516 0.00257257 1e-05
-0.00547303 0.00256875 1e-05
-0.00527083 0.0025642 1e-05
-0.00507675 0.00255913 1e-05
-0.00488269 0.00255344 1e-05
-0.00468865 0.00254712 1e-05
-0.00449464 0.00253998 1e-05
-0.00430044 0.00253192 1e-05
-0.00411412 0.0025233 1e-05
-0.00392784 0.00251389 1e-05
-0.00374159 0.0025037 1e-05
-0.0035554 0.00249256 1e-05
-0.00336883 0.00248017 1e-05
-0.00318995 0.00246713 1e-05
-0.00301115 0.00245301 1e-05
-0.00283245 0.00243776 1e-05
-0.00265386 0.00242122 1e-05
-0.00247443 0.00240316 1e-05
-0.0023027 0.00238427 1e-05
-0.00213114 0.00236386 1e-05
-0.00195982 0.00234156 1e-05
-0.00178875 0.0023174 1e-05
-0.00161577 0.00229107 1e-05
-0.00161566 0.00229105 1e-05
-0.00161554 0.00229103 1e-05
-0.00161542 0.00229102 1e-05
-0.00161531 0.002291 1e-05
-0.00161519 0.00229098 1e-05
-0.00145044 0.00226408 1e-05
-0.00128608 0.00223482 1e-05
-0.00112216 0.00220327 1e-05
-0.000958675 0.00216948 1e-05
-0.000791418 0.00213238 1e-05
-0.000633135 0.00209427 1e-05
-0.000475556 0.00205334 1e-05
-0.000318719 0.00200966 1e-05
-0.000162834 0.00196269 1e-05
0 0.00190954 1e-05
3.73511e-05 0.00189633 1e-05
7.46022e-05 0.00188285 1e-05
0.000111755 0.0018691 1e-05
0.00014881 0.00185508 1e-05
0.000179126 0.00184338 1e-05
0.000248978 0.00181594 1e-05
0.00031842 0.00178748 1e-05
0.000387436 0.00175801 1e-05
0.000456013 0.00172753 1e-05
0.000528387 0.00169415 1e-05
0.000634886 0.00164317 1e-05
0.000740278 0.00158994 1e-05
0.00084451 0.00153448 1e-05
0.00094762 0.00147695 1e-05
0.00101992 0.00143469 1e-05
0.00102811 0.00142973 1e-05
0.00103629 0.00142477 1e-05
0.00104447 0.00141979 1e-05
0.00105263 0.00141479 1e-05
0.00106088 0.00140972 1e-05
0.00116821 0.00134353 1e-05
0.00127404 0.00127498 1e-05
0.00137827 0.00120402 1e-05
0.00148099 0.00113089 1e-05
0.00159672 0.00104511 1e-05
0.00159688 0.00104498 1e-05
0.00159704 0.00104486 1e-05
0.0015972 0.00104474 1e-05
0.00159736 0.00104461 1e-05
0.00159752 0.00104449 1e-05
0.00169219 0.000970914 1e-05
0.00178546 0.000895575 1e-05
0.00187724 0.000818436 1e-05
0.00196762 0.000739644 1e-05
0.00203801 0.000676367 1e-05
0.00205807 0.000657879 1e-05
0.00207805 0.000639302 1e-05
0.00209795 0.000620635 1e-05
0.00211779 0.000601905 1e-05
0.00213833 0.000582393 1e-05
0.00219146 0.000531573 1e-05
0.0022441 0.000480236 1e-05
0.00229622 0.000428375 1e-05
0.00234781 0.000375982 1e-05
0.00239411 0.000328255 1e-05
0.00245196 0.000267795 1e-05
0.00250917 0.000206735 1e-05
0.00256575 0.000145092 1e-05
0.00262182 8.29828e-05 1e-05
0.00268334 1.36607e-05 1e-05
0.00268571 1.09285e-05 1e-05
0.00268809 8.1954e-06 1e-05
0.00269047 5.46123e-06 1e-05
0.00269284 2.72604e-06 1e-05
0.0026952 0 1e-05
0.0027591 -7.37368e-05 1e-05
0.00282238 -0.000148005 1e-05
0.00288502 -0.000222813 1e-05
0.00294699 -0.000298173 1e-05
0.00300406 -0.000368654 1e-05
0.00304977 -0.000425934 1e-05
0.00309516 -0.000483459 1e-05
0.00314025 -0.000541226 1e-05
0.00318509 -0.000599188 1e-05
0.00323259 -0.000661163 1e-05
0.00325063 -0.00068495 1e-05
0.00326863 -0.000708775 1e-05
0.00328657 -0.000732641 1e-05
0.00330446 -0.000756547 1e-05
0.00332201 -0.00078009 1e-05
0.00339015 -0.000871877 1e-05
0.00345769 -0.000964107 1e-05
0.00352461 -0.00105679 1e-05
0.00359098 -0.00114986 1e-05
0.00365385 -0.00123896 1e-05
0.0036803 -0.00127685 1e-05
0.00370667 -0.00131479 1e-05
0.00373298 -0.00135279 1e-05
0.00375922 -0.00139082 1e-05
0.00378611 -0.00142989 1e-05
0.00383009 -0.001494 1e-05
0.00387386 -0.00155827 1e-05
0.00391741 -0.00162268 1e-05
0.00396073 -0.00168724 1e-05
0.00400288 -0.00175044 1e-05
0.00407109 -0.00185327 1e-05
0.00413889 -0.00195638 1e-05
0.00420625 -0.00205977 1e-05
0.00427333 -0.00216334 1e-05
0.00434393 -0.00227302 1e-05
0.00434998 -0.00228247 1e-05
0.00435602 -0.00229193 1e-05
0.00436206 -0.0023014 1e-05
0.00436809 -0.00231086 1e-05
0.00437411 -0.0023203 1e-05
0.00445495 -0.00244725 1e-05
0.00453535 -0.00257449 1e-05
0.00461535 -0.00270197 1e-05
0.00469499 -0.00282968 1e-05
0.00477287 -0.00295498 1e-05
0.00479951 -0.002998 1e-05
0.00482613 -0.00304104 1e-05
0.00485272 -0.00308409 1e-05
0.00487931 -0.00312715 1e-05
0.00490609 -0.00317053 1e-05
0.00496672 -0.00326875 1e-05
0.00502721 -0.00336706 1e-05
0.00508754 -0.00346547 1e-05
0.00514774 -0.00356395 1e-05
0.00520739 -0.00366161 1e-05
0.00526043 -0.00374852 1e-05
0.00531344 -0.00383546 1e-05
0.00536641 -0.00392242 1e-05
0.0054194 -0.00400936 1e-05
0.00547262 -0.00409657 1e-05
0.00551559 -0.00416688 1e-05
0.00555853 -0.00423721 1e-05
0.00560143 -0.00430756 1e-05
0.00564432 -0.00437792 1e-05
0.00568714 -0.00444811 1e-05
0.00575842 -0.00456486 1e-05
0.00582975 -0.00468159 1e-05
0.00590113 -0.00479828 1e-05
0.00597264 -0.00491489 1e-05
0.00604356 -0.00503007 1e-05
0.00607981 -0.00508871 1e-05
0.00611606 -0.00514734 1e-05
0.00615233 -0.00520597 1e-05
0.00618862 -0.00526458 1e-05
0.00622501 -0.00532326 1e-05
0.0063038 -0.00545004 1e-05
0.00638277 -0.0055767 1e-05
0.00646194 -0.00570324 1e-05
0.00654138 -0.00582961 1e-05
0.00661893 -0.00595216 1e-05
0.00666282 -0.00602107 1e-05
0.00670676 -0.00608994 1e-05
0.00675076 -0.00615878 1e-05
0.00679484 -0.00622757 1e-05
0.00683929 -0.00629671 1e-05
0.00691119 -0.00640814 1e-05
0.00698334 -0.00651941 1e-05
0.00705575 -0.00663051 1e-05
0.00712845 -0.00674141 1e-05
0.00719878 -0.0068479 1e-05
0.00726945 -0.00695412 1e-05
0.00734034 -0.0070602 1e-05
0.00741146 -0.00716613 1e-05
0.00748289 -0.00727185 1e-05
0.00755584 -0.00737909 1e-05
0.0076013 -0.00744542 1e-05
0.00764689 -0.00751167 1e-05
0.0076926 -0.00757783 1e-05
0.00773845 -0.0076439 1e-05
0.00778313 -0.00770796 1e-05
0.00790091 -0.00787594 1e-05
0.00801946 -0.00804338 1e-05
0.00813878 -0.00821026 1e-05
0.0082591 -0.00837643 1e-05
0.00837203 -0.00853035 1e-05
0.0083797 -0.00854066 1e-05
0.00838737 -0.00855096 1e-05
0.00839504 -0.00856127 1e-05
0.00840272 -0.00857157 1e-05
0.00841042 -0.00858189 1e-05
0.00852144 -0.00873059 1e-05
0.00863328 -0.00887868 1e-05
0.00874596 -0.00902612 1e-05
0.00885951 -0.0091729 1e-05
0.00896551 -0.00930804 1e-05
0.00903007 -0.0093893 1e-05
0.00909489 -0.00947035 1e-05
0.00915998 -0.00955118 1e-05
0.00922537 -0.00963177 1e-05
0.00929293 -0.00971438 1e-05
0.00934707 -0.00978005 1e-05
0.00940139 -0.00984557 1e-05
0.00945592 -0.00991091 1e-05
0.00951064 -0.0099761 1e-05
0.0095636 -0.0100388 1e-05
[...]
POINT_DATA 12278
 FIELD attributes 2
p 1 12278 float
177014 177096 177169 177232 177286 177331
108948 108966 108982 108996 109009 109019
87754.3 87763.9 87773.2 87782.4 87791.4 87799.8
79936.6 79942.9 79949.1 79955.2 79961.3 79967.3
77145.7 77154.9 77164.1 77173.3 77182.6 77191.8
77563.1 77576.6 77590.2 77603.8 77617.3 77630.9
81096.2 81108.7 81120.9 81133 81144.9 81156.7
90922.7 90942.4 90961.5 90979.8 90997.4 91014.2
117355 117387 117418 117446 117472 117496
215474 215284 215092 214898 214702 214504
177014 173409 169082 164503 162837 158905 155523 152872 144707 134666 129223 123794 119856 119245 118393 112348 106449 102327 101432 100565 99582.6 98600.4 97173.8 95705.5 93989.9 93623.4 93256.4 92888.8 92407.8 91910.1 89990.6 88186.6 86672.7 85885.3 85108.6 84422.8 83758 83108.2 82456.5 81622.5 81587.6 81558.7 81530.6 81502.6 81473.8 80941 80408.7 79876.9 79345.6 78920.5 78494.3 78085.1 77687.5 77311.8 76945.9 76595.9 76245.6 75921.9 75620.4 75319.4 75029.9 74740.2 74461.7 74198.9 73936.3 73682.6 73428.9 73178.8 72942.7 72706.6 72477.7 72248.8 72018.3 71798.8 71579.6 71365.9 71152.4 70933.8 70722.9 70512.3 70305.1 70098.2 69885.2 69672.8 69460.7 69248.7 69037.3 68822.1 68594.1 68366.5 68133.6 67897.9 67653.8 67401.2 67135.3 66855 66541.3 66229.1 65918.5 65605.4 65605.2 65604.9 65604.6 65604.3 65604 65212.8 64827.3 64447.4 64049.4 63569.3 63053.8 62544.1 61843.1 61070 60256.9 60008.6 59770.6 59543.5 59316.9 59131.6 58574.8 58015.7 57454.6 56981.4 56513.1 55908.6 55305.8 54766.1 54225 53840.4 53782.3 53724.1 53668.8 53621.2 53573 53019.9 52459.5 51941.5 51469.2 50923.7 50922.7 50921.6 50920.8 50920 50919.2 50492.1 50057.4 49654.9 49319.4 49050.5 48951.2 48851.6 48780.7 48711.1 48638.5 48450 48259.2 48066.6 47922.2 47790.1 47617.4 47448.7 47309.1 47167.4 47008.1 47001.7 46995.2 46988.8 46983 46977.5 46872.2 46759.9 46645.1 46531.9 46424.9 46389.4 46352.6 46313 46272.7 46228.9 46208.8 46188.5 46168.1 46146.9 46125.8 46100.4 46073.7 46036.6 45994.3 45952.8 45955.2 45957.3 45956.6 45955.8 45954.8 45943.6 45931.8 45919.7 45904.7 45889.5 45899.3 45908.4 45912.9 45916.9 45920.6 45919.7 45918.9 45918 45917 45915.9 45929.4 45943 45955.7 45966.4 45976.7 45987 45997.3 46007.1 46016.8 46026.5 46038.1 46049.5 46060.7 46071.7 46082.7 46101.1 46119.5 46138 46156.5 46175.1 46183.7 46192.2 46200.9 46210 46219.1 46241.8 46264.5 46287.9 46311.8 46335.6 46343 46350.4 46358.1 46366.4 46374.6 46397.8 46421.2 46445.3 46470.6 46495.3 46504.2 46513.2 46522.8 46533 46543.3 46563 46582.8 46603.1 46625 46646.3 46660.1 46674.1 46689.8 46706.1 46722.8 46734.3 46745.9 46757.6 46770.3 46782.6 46804.6 46826.7 46852.2 46878.4 46904.3 46905.4 46906.5 46907.9 46909.3 46910.6 46931.8 46953.2 46975 46998.9 47021.2 47030.8 47040.4 47051.4 47062.4 47073.9 47083.6 47093.3 47103.1 47113.5 47123.6 47140.8 47158.2 47177.1 47197 47216.3 47218.9 47221.5 47224.5 47227.4 47230.4 47244.7 47259.2 47273.7 47289.3 47304.2 47318 47332.1 47347.6 47363.2 47380.1 47380.2 47380.2 47380.3 47380.4 47380.5 47395.1 47409.8 47424.7 47440.5 47455.8 47467.8 47480.4 47494 47507.7 47520.8 47521.4 47522 47522.7 47523.4 47524.1 47535.9 47547.7 47559.6 47572.2 47584.7 47595 47605.4 47617 47629.2 47641.2 47645.2 47649.6 47654.2 47658.9 47663.8 47669.7 47675.5 47681.4 47687.6 47694 47702.8 47711.9 47721.6 47732.5 47742.9 47750.5 47758.6 47767.6 47776.5 47785.7 47787.8 47790.2 47792.7 47795.3 47797.9 47803.3 47808.7 47814 47819.6 47825.6 47831.8 47838.4 47845.3 47853.3 47861.2 47866.2 47871.3 47877.5 47884.2 47890.9 47894.5 47899.2 47903.8 47908.5 47913.8 47914 47914.3 47914.5 47914.8 47915.1 47919.2 47923.3 47927.5 47931.6 47936.7 47939 47941.5 47944.5 47948.4 47952.2 47953.4 47954.5 47956.4 47959.2 47961.9 47961.8 47962.3 47963.2 47964 47965.5 47964.6 47964.4 47964.1 47963.8 47963.4 47963.4 47963.4 47963.4 47963.3 47963.4 47962 47960.7 47959.3 47957.9 47957.1 47954 47951.4 47948.8 47946.6 47944.8 47940.4 47936.1 47932.4 47929.3 47926.3 47920.7 47915.2 47910.3 47906 47901.7 47895.1 47888.5 47882.4 47876.7 47871.3 47863.5 47856.1 47848.9 47841.6 47835 47826.2 47817.9 47809.5 47801.1 47793 47784.4 47776 47767.5 47759.1 47749.2 47748.5 47747.7 47747 47746.2 47745.5 47735.1 47724.6 47714.2 47703.7 47693.4 47681.6 47670.1 47658.6 47647.1 47635.8 47622.9 47610.4 47597.9 47585.4 47573.1 47559.1 47545.5 47532.1 47518.7 47505.4 47490.5 47475.8 47461.4 47447.1 47432.8 47417.1 47401.4 47386.1 47370.9 47355.7 47339.2 47322.6 47306.3 47290.2 47274.2 47256.8 47239.5 47222.3 47205.4 47188.5 47170.4 47152.3 47134.2 47116.5 47098.7 47079.9 47061.1 47042.3 47023.7 47005.3 46985.8 46966.3 46946.7 46927.4 46908.2 46888.1 46867.9 46847.7 46827.6 46807.7 46787 46766.2 46745.3 46724.6 46704 46682.7 46661.3 46639.9 46618.5 46597.3 46575.5 46553.5 46531.5 46509.6 46487.8 46465.4 46442.9 46420.4 46397.9 46375.6 46352.7 46329.7 46306.7 46283.7 46260.9 46237.5 46214.1 46190.6 46167.1 46143.8 46120 46096.1 46072.2 46048.3 46024.5 46000.3 45975.9 45951.6 45927.3 45903.1 45878.5 45853.8 45829.1 45804.4 45779.7 45754.8 45729.7 45704.6 45679.6 45654.6 45629.3 45603.9 45578.5 45553.1 45527.7 45502.1 45476.3 45450.6 45424.9 45399.2 45373.3 45347.2 45321.2 45295.2 45269.2 45243 45216.7 45190.4 45164 45137.8 45111.2 45084.7 45058.1 45031.5 45005 44978.2 44951.4 44924.6 44897.7 44870.9 44843.9 44816.9 44789.8 44762.7 44735.7 44708.4 44681.1 44653.9 44626.6 44599.3 44571.8 44544.3 44516.8 44489.3 44461.8 44434.1 44406.4 44378.7 44351 44323.2 44295.4 44267.4 44239.5 44211.6 44183.7 44155.6 44127.5 44099.4 44071.3 44043.2 44014.9 43986.6 43958.3 43930 43901.7 43873.3 43844.8 43816.3 43787.8 43759.4 43730.7 43702.1 43673.4 43644.7 43616.1 43587.3 43558.4 43529.6 43500.8 43471.9 43443 43414 43384.9 43355.9 43326.9 43297.8 43268.6 43239.4 43210.2 43181 43151.7 43122.4 43093 43063.7 43034.3 43004.8 42975.3 42945.8 42916.3 42886.7 42857.1 42827.4 42797.7 42768 42738.3 42708.4 42678.6 42648.7 42618.9 42589 42559 42528.9 42498.9 42468.9 42438.8 42408.6 42378.4 42348.2 42318 42287.8 42257.4 42227 42196.6 42166.2 42135.8 42105.3 42074.7 42044.2 42013.6 41983 41952.3 41921.5 41890.8 41860 41829.3 41798.4 41767.4 41736.5 41705.6 41674.6 41643.5 41612.4 41581.3 41550.1 41519 41487.7 41456.4 41425.1 41393.8 41362.4 41330.9 41299.4 41267.9 41236.4 41204.9 41173.2 41141.5 41109.8 41078.1 41046.3 41014.5 40982.5 40950.6 40918.7 40886.8 40854.7 40822.6 40790.5 40758.3 40726.2 40693.9 40661.6 40629.2 40596.9 40564.5 40532 40499.5 40467 40434.4 40401.8 40369.1 40336.3 40303.6 40270.8 40238 40205.1 40172.1 40139.1 40106.1 40073.1 40039.9 40006.7 39973.5 39940.3 39907 39873.6 39840.2 39806.8 39773.3 39739.8 39706.2 39672.5 39638.9 39605.2 39571.4 39537.6 39503.7 39469.8 39435.9 39401.9 39367.8 39333.6 39299.5 39265.3 39231.1 39196.8 39162.4 39128 39093.6 39059.1 39024.5 38989.9 38955.2 38920.6 38885.9 38851 38816.1 38781.2 38746.3 38711.3 38676.3 38641.1 38605.9 38570.8 38535.5 38500.2 38464.8 38429.4 38393.9 38358.4 38322.8 38287.2 38251.5 38215.8 38180 38144.2 38108.2 38072.3 38036.3 38000.3 37964.1 37927.9 37891.7 37855.5 37819.2 37782.8 37746.3 37709.8 37673.3 37636.7 37600 37563.3 37526.5 37489.7 37452.9 37415.9 37378.9 37341.8 37304.8 37267.6 37230.4 37193.1 37155.7 37118.4 37081 37043.4 37005.9 36968.2 36930.6 36892.9 36855.1 36817.2 36779.3 36741.4 36703.4 36665.3 36627.1 36588.9 36550.7 36512.4 36474 36435.5 36397 36358.5 36320 36281.2 36242.5 36203.7 36164.9 36126 36087 36048 36008.9 35969.7 35930.6 35891.3 35851.9 35812.5 35773.1 35733.6 35694 35654.4 35614.7 35574.9 35535.2 35495.2 35455.3 35415.3 35375.2 35335.2 35294.9 35254.7 35214.4 35174 35133.6 35093.1 35052.5 35011.9 34971.2 34930.5 34889.6 34848.7 34807.8 34766.8 34725.8 34684.6 34643.4 34602.1 34560.8 34519.5 34478 34436.4 34394.9 34353.2 34311.6 34269.7 34227.9 34186 34144 34102.1 34059.9 34017.7 33975.5 33933.2 33890.9 33848.4 33805.9 33763.4 33720.8 33678.1 33635.3 33592.5 33549.6 33506.6 33463.7 33420.5 33377.4 33334.1 33290.9 33247.5 33204.1 33160.6 33117 33073.4 33029.7 32985.9 32942.1 32898.2 32854.2 32810.3 32766.1 32721.9 32677.7 32633.4 32589 32544.5 32500 32455.4 32410.8 32366.1 32321.3 32276.4 32231.5 32186.5 32141.5 32096.3 32051.1 32005.8 31960.4 31915 31869.5 31823.9 31778.3 31732.6 31686.9 31641 31595 31549.1 31503 31456.9 31410.6 31364.4 31318 31271.6 31225.2 31178.5 31131.9 31085.2 31038.4 30991.6 30944.6 30897.6 30850.6 30803.4 30756.3 30708.9 30661.5 30614.1 30566.6 30519.1 30471.3 30423.6 30375.8 30327.9 30280 30231.9 30183.8 30135.6 30087.3 30039.1 29990.6 29942.1 29893.6 29844.9 29796.3 29747.4 29698.6 29649.6 29600.6 29551.6 29502.3 29453.1 29403.8 29354.4 29305 29255.3 29205.7 29156 29106.2 29056.4 29006.4 28956.4 28906.3 28856.1 28805.9 28755.5 28705.1 28654.6 28604 28553.4 28502.6 28451.8 28400.9 28349.9 28299 28247.7 28196.5 28145.2 28093.8 28042.5 27990.8 27939.2 27887.5 27835.7 27783.9 27731.9 27679.8 27627.7 27575.5 27523.3 27470.9 27418.4 27365.9 27313.3 27260.6 27207.8 27154.9 27101.9 27048.9 26995.9 26942.6 26889.2 26835.9 26782.4 26729 26675.2 26621.5 26567.7 26513.8 26459.9 26405.8 26351.6 26297.4 26243.1 26188.8 26134.3 26079.7 26025.1 25970.4 25915.7 25860.7 25805.7 25750.7 25695.7 25640.6 25585.2 25529.9 25474.6 25419.2 25363.8 25308.1 25252.5 25196.9 25141.2 25085.6 25029.7 24973.9 24918.2 24862.4 24806.7 24750.8 24695 24639.3 24583.7 24528 24472.3 24417 24361.9 24306.8 24252.1 24197.4 24142.5 24087.5 24032.5 23977.1 23922.4 23873.7 23825.1 23776.4 23732.7 23683.5 23618.2 23552.7 23487.2 23412.7 23361.5 23331.1 23301.1 23271.3 23257.1 23252.9 23248.8 23244.6 23240.4 23238.9 23236.3 23231 23225.8 23220.5 23214.8 23187.8 23160.6 23133.2 23105.5 23061.9 22986 22917 22848.1 22779.2 22722.9 22671.8 22615.5 22559.1 22502.7 22440.1 22372.3 22304.3 22236.2 22168 22099.6 22028.3 21955 21881.8 21808.6 21733.2 21655 21575.2 21495.4 21415.6 21334.2 21249.9 21163.8 21077.6 20991.5 20903.5 20812.5 20719.6 20626.6 20533.6 20438.8 20340.7 20240.5 20140.2 20039.8 19937.5 19831.6 19723.4 19615.1 19506.7 19396.2 19281.9 19164.8 19047.6 18930.3 18810.5 18686.5 18559.7 18432.8 18305.8 18176.4 18042.3 17904.4 17766.2 17627.9 17486 17339 17189.3 17039.5 16889.5 16737.3 16579.5 16414.9 16250 16084.8 15913.3 15735.5 15557.4 15379.2 15201.1 15023 14838.4 14638.9 14438.5 14237.4 14022.2 13799 13585.9 13373.4 13161.4 12960.1 12751.2 12503.7 12254 12002.1 11712.8 11412.6 11157.3 10904.8 10655 10450.3 10237.7 9921.71 9598.13 9265.97 8833.29 8384.3 8071.54 7773.93 7494.34 7349.24 7198.2 6801.73 6357.27 5839.02 5089.66 4311.37 3779.21 3398.29 3250.94 3316.67 3382.97 3362.04 2777.14 1388.16 0