4.545454545e-05 	0.0004215477749 	7.967188315e-05 	9.986913817e-12
6.060606061e-05 	0.001089903951 	0.0002059898068 	2.582053749e-11
7.575757576e-05 	0.001758260142 	0.000332307736 	4.16541648e-11
9.090909091e-05 	0.002451882791 	0.0004497900386 	4.965969845e-11
0.0001060606061 	0.003173803623 	0.0005573799543 	4.890248688e-11
0.0001212121212 	0.003895724453 	0.0006649698719 	4.814527392e-11
0.0001363636364 	0.004635148828 	0.0007661790949 	4.745965718e-11
0.0001515151515 	0.005413040514 	0.0008533710114 	4.693197164e-11
0.0001666666667 	0.006190932178 	0.000940562926 	4.640428534e-11
0.0001818181818 	0.006978544965 	0.001025002876 	4.598113007e-11
0.000196969697 	0.007819661715 	0.001094305359 	4.613115033e-11
0.0002121212121 	0.008660778453 	0.001163607841 	4.628117015e-11
0.0002272727273 	0.009501895183 	0.001232910322 	4.643118965e-11
0.0002424242424 	0.01041892936 	0.001287517979 	4.602124203e-11
0.0002575757576 	0.01133636156 	0.001342049606 	4.560822886e-11
0.0002727272727 	0.01225379374 	0.001396581232 	4.519521571e-11
0.0002878787879 	0.01324979713 	0.001441101065 	4.463247043e-11
0.000303030303 	0.01426123492 	0.001483655065 	4.403986896e-11
0.0003181818182 	0.01527267267 	0.001526209061 	4.344726845e-11
0.0003333333333 	0.01636124359 	0.001562317036 	4.190626267e-11
0.0003484848485 	0.01748664168 	0.001595348122 	3.991279727e-11
0.0003636363636 	0.01861203972 	0.001628379202 	3.791933211e-11
0.0003787878788 	0.01980676286 	0.001657472899 	3.645195186e-11
0.0003939393939 	0.02106602708 	0.001682901626 	3.547502467e-11
0.0004090909091 	0.02232529122 	0.001708330345 	3.449809628e-11
0.0004242424242 	0.02363913548 	0.001731488584 	3.486699192e-11
0.0004393939394 	0.02505047828 	0.001750591689 	3.764000712e-11
0.0004545454545 	0.02646182103 	0.00176969479 	4.04130216e-11
0.0004696969697 	0.0279067284 	0.001787670188 	4.280089439e-11
0.0004848484848 	0.02948596283 	0.001801133373 	4.364626736e-11
0.0005 	0.03106519724 	0.001814596552 	4.449164012e-11
0.0005151515152 	0.032651859 	0.001827838997 	4.524319518e-11
0.0005303030303 	0.03441250448 	0.001835913917 	4.380419523e-11
0.0005454545455 	0.0361731499 	0.001843988835 	4.236519501e-11
0.0005606060606 	0.03793379525 	0.00185206375 	4.092619447e-11
0.0005757575758 	0.03986481502 	0.00185538616 	4.07735088e-11
0.0005909090909 	0.04181863614 	0.001858072628 	4.07925824e-11
0.0006060606061 	0.04377245719 	0.00186075909 	4.081165599e-11
0.0006212121212 	0.04587360911 	0.001859477468 	4.010108935e-11
0.0006363636364 	0.04803121042 	0.001856675553 	3.911090109e-11
0.0006515151515 	0.05018881158 	0.00185387363 	3.812071295e-11
0.0006666666667 	0.0524669226 	0.001847921095 	3.707628698e-11
0.0006818181818 	0.05483818917 	0.001839533135 	3.599041923e-11
0.000696969697 	0.0572094556 	0.001831145165 	3.490455041e-11
0.0007121212121 	0.05967107801 	0.001820479575 	3.42559288e-11
0.0007272727273 	0.06226542628 	0.001806468316 	3.424958489e-11
0.0007424242424 	0.0648597744 	0.001792457054 	3.424324052e-11
0.0007575757576 	0.0675112434 	0.001777075291 	3.405930466e-11
0.0007727272727 	0.07033773536 	0.001757494065 	3.333085883e-11
0.0007878787879 	0.07316422724 	0.001737912834 	3.260241261e-11
0.000803030303 	0.07601169646 	0.001717860553 	3.190844547e-11
0.0008181818182 	0.07907908235 	0.001692869347 	3.157539611e-11
0.0008333333333 	0.08214646817 	0.001667878141 	3.124234667e-11
0.0008484848485 	0.0852138539 	0.001642886932 	3.090929716e-11
0.0008636363636 	0.08851266119 	0.001613131672 	3.244666773e-11
0.0008787878788 	0.09182939545 	0.001583007273 	3.412854103e-11
0.0008939393939 	0.0951461296 	0.00155288287 	3.581041505e-11
0.0009090909091 	0.0986609283 	0.001519119145 	3.531496802e-11
0.0009242424242 	0.1022351808 	0.001484262854 	3.416605312e-11
0.0009393939394 	0.1058094332 	0.001449406559 	3.30171388e-11
0.0009545454545 	0.1095456327 	0.001411987958 	3.002566693e-11
0.0009696969697 	0.1133853066 	0.001372932004 	2.585814766e-11
0.0009848484848 	0.1172249803 	0.001333876045 	2.169062581e-11
0.001 	0.1211878649 	0.001293227004 	1.927467859e-11
0.001015151515 	0.1253006278 	0.001250639779 	1.89900535e-11
0.00103030303 	0.1294133905 	0.001208052553 	1.870542666e-11
0.001045454545 	0.1336081389 	0.001164669869 	1.887254609e-11
0.001060606061 	0.138001485 	0.001119359816 	2.013247764e-11
0.001075757576 	0.142394831 	0.001074049761 	2.139240785e-11
0.001090909091 	0.1468265513 	0.00102850367 	2.234368243e-11
0.001106060606 	0.1515079488 	0.0009814207444 	2.12833246e-11
0.001121212121 	0.1561893462 	0.0009343378185 	2.022296691e-11
0.001136363636 	0.1608707434 	0.0008872548925 	1.916260933e-11
0.001151515152 	0.1658404524 	0.0008395033555 	1.754743915e-11
0.001166666667 	0.1708177834 	0.0007917339889 	1.591711881e-11
0.001181818182 	0.1757951142 	0.0007439646218 	1.42868e-11
0.001196969697 	0.1810216999 	0.0006966224707 	9.791811118e-12
0.001212121212 	0.1863047648 	0.0006493769471 	4.647857868e-12
0.001227272727 	0.1915878294 	0.0006021314225 	-4.960938289e-13
0.001242424242 	0.1970828514 	0.0005561189237 	-3.694011764e-12
0.001257575758 	0.2026888791 	0.0005107519828 	-5.872223973e-12
0.001272727273 	0.2082949065 	0.0004653850437 	-8.050435964e-12
0.001287878788 	0.2140840996 	0.0004217532207 	-7.25761591e-12
0.001303030303 	0.2200584401 	0.0003798750477 	-3.461678642e-12
0.001318181818 	0.2260327803 	0.0003379968746 	3.342585779e-13
0.001333333333 	0.2321830802 	0.0002978326314 	3.056593298e-12
0.001348484848 	0.2386775098 	0.0002610199353 	3.680641525e-12
0.001363636364 	0.245171939 	0.0002242072396 	4.304688207e-12
0.001378787879 	0.2518604729 	0.0001882037673 	4.057951017e-12
0.001393939394 	0.2594372313 	0.0001559019427 	-1.736725278e-13
0.001409090909 	0.2670139896 	0.0001236001183 	-4.405296395e-12
0.001424242424 	0.2746592392 	9.136341048e-05 	-8.495633469e-12
0.001439393939 	0.2856006779 	6.225375296e-05 	-5.788823829e-12
0.001454545455 	0.296542116 	3.314409608e-05 	-3.082015139e-12
0.00146969697 	0.3074835533 	4.034440031e-06 	-3.752076537e-13
