# Region type : patch OUTLET
# Faces  :    30
# Area   :    9.000001e-07
# Time        	areaAverage(N01)
1.2           	4.616965e+01
