/*--------------------------------*- C++ -*----------------------------------*\
  =========                 |
  \\      /  F ield         | OpenFOAM: The Open Source CFD Toolbox
   \\    /   O peration     | Website:  https://openfoam.org
    \\  /    A nd           | Version:  8
     \\/     M anipulation  |
\*---------------------------------------------------------------------------*/
FoamFile
{
    version     2.0;
    format      ascii;
    class       volScalarField;
    location    "902";
    object      nu;
}
// * * * * * * * * * * * * * * * * * * * * * * * * * * * * * * * * * * * * * //

dimensions      [0 2 -1 0 0 0 0];

internalField   nonuniform List<scalar> 
6300
(
1.680214304
1.696195354
1.564080208
1.407118452
1.253528503
1.112934048
0.988687474
0.8811852006
0.7891991238
0.7108011581
0.6439384913
0.5867162713
0.5374996759
0.4949252666
0.4578746343
0.4254367887
0.3968708423
0.371573299
0.3490509024
0.3288987708
0.3107830274
0.2944271085
0.2796008665
0.2661112274
0.2537906924
0.2424656889
0.2318140315
0.2206981298
0.2041747535
0.1619688197
1.405255366
1.419779907
1.373088915
1.283887982
1.172291034
1.055697324
0.9457639288
0.8478333383
0.7629079382
0.689971135
0.6274023317
0.5735773657
0.5270609918
0.4866433775
0.451324698
0.420285272
0.3928544433
0.3684828153
0.346718889
0.3271900895
0.3095875318
0.2936538807
0.2791734887
0.2659635875
0.2538624549
0.2426955492
0.2321308244
0.2210192938
0.2043764082
0.1615321263
1.310233953
1.317674
1.287810782
1.221885039
1.129844641
1.026097005
0.923790478
0.8306030432
0.7490158146
0.6786519517
0.6181360754
0.5659626465
0.5207784166
0.4814389227
0.4469968919
0.4166742373
0.3898328752
0.365948803
0.3445903352
0.3254003935
0.3080822664
0.2923882235
0.2781102442
0.2650716274
0.2531153091
0.2420702101
0.2316085705
0.2205816595
0.2039250298
0.1607482638
1.246142286
1.244782068
1.219830726
1.166521667
1.088214665
0.9953372874
0.9003717092
0.8120565001
0.7339686372
0.666327414
0.6080090207
0.5576251691
0.513900091
0.475751962
0.4422855319
0.4127651257
0.3865866595
0.3632531352
0.3423542599
0.323549891
0.3065567739
0.291137886
0.2770937212
0.2642542658
0.2524674698
0.2415657094
0.2312220674
0.2202710814
0.2035514844
0.160057636
1.193898129
1.186707217
1.163668391
1.118216296
1.049978587
0.9661404937
0.8778533721
0.7941637855
0.7194151643
0.6543614283
0.5981342844
0.5494636283
0.5071455688
0.4701543131
0.4376412514
0.4089092186
0.3833854068
0.3605979488
0.3401566264
0.3217373137
0.3050695153
0.2899263529
0.2761163397
0.263475681
0.2518569335
0.2410953377
0.2308624588
0.2199712473
0.20317062
0.15938537
1.147308344
1.136703036
1.114922813
1.074999012
1.01453593
0.9383421271
0.8561435489
0.7768606864
0.7053274369
0.6427540284
0.5885253562
0.5414943815
0.5005284523
0.4646543763
0.4330665179
0.4051031403
0.3802203367
0.3579695851
0.3379794178
0.3199407388
0.3035950642
0.2887251078
0.2751469929
0.262702889
0.2512498686
0.2406258657
0.2304999193
0.2196618193
0.2027745732
0.1587266451
1.103804637
1.091580632
1.071127217
1.035560663
0.9814002125
0.9117799286
0.8351381425
0.7600501748
0.6916282658
0.6314534861
0.5791508746
0.5336993935
0.4940385848
0.4592462869
0.4285575265
0.4013438044
0.3770883096
0.3553644417
0.3358183987
0.3181552908
0.3021280414
0.2875285167
0.2741801594
0.2619309522
0.2506424117
0.2401549858
0.2301345391
0.2193465721
0.2023691628
0.158081041
1.062358167
1.049832211
1.030965326
0.9991268321
0.9502737153
0.8863826147
0.8148101816
0.7436967645
0.6782801631
0.620430143
0.569990675
0.5260658587
0.4876679969
0.4539250061
0.4241108653
0.3976286071
0.3739870382
0.3527802846
0.333671291
0.3163786579
0.3006661938
0.2863345323
0.2732141841
0.261158785
0.2500341893
0.2396831407
0.2297677561
0.2190279373
0.2019567799
0.1574474809
1.022536925
1.010643641
0.9936334607
0.9651633801
0.9209200446
0.8620875729
0.7951458091
0.7277834152
0.6652602806
0.6096627061
0.5610283019
0.5185819735
0.4814083868
0.4486846301
0.4197222085
0.393954233
0.3709138481
0.3502148725
0.3315361645
0.3146091892
0.2992081574
0.2851421253
0.2722484231
0.2603861824
0.2494254581
0.2392110727
0.229400791
0.2187073382
0.2015384531
0.15682494
0.9841451081
0.973532019
0.9585997733
0.9332744303
0.8931345019
0.8388243718
0.7761254294
0.712295663
0.6525506317
0.5991334395
0.552249126
0.5112366455
0.4752516217
0.4435192312
0.4153872261
0.3903174932
0.3678663781
0.3476664576
0.3294117572
0.3128460258
0.2977534423
0.2839511557
0.271283088
0.2596136991
0.2488171022
0.2387399559
0.2290349755
0.2183859151
0.2011148808
0.1562127862
0.9470897745
0.9381948897
0.9254990246
0.9031614459
0.8667423748
0.8165203884
0.7577245378
0.6972196118
0.6401366756
0.5888279993
0.5436409929
0.50402046
0.4691907069
0.4384237232
0.411102264
0.3867157989
0.3648428319
0.3451338409
0.3272973419
0.3110888326
0.2963020462
0.2827619281
0.2703187627
0.2588421759
0.2482101834
0.2382709917
0.2286714694
0.2180644705
0.2006865322
0.1556106386
0.9113230519
0.9044321602
0.894071362
0.8745956051
0.8415960001
0.7951050931
0.7399154225
0.6825410135
0.6280059088
0.5787344861
0.5351937433
0.4969254584
0.4632197012
0.4333938043
0.406864273
0.3831470494
0.3618418245
0.3426161887
0.3251925119
0.3093375514
0.2948542072
0.2815749333
0.2693561646
0.2580725238
0.2476057537
0.2378052786
0.2283112181
0.2177435563
0.2002537669
0.1550183087
0.8768155998
0.8721035587
0.8641253865
0.8473985017
0.8175711533
0.7745125265
0.7226689846
0.668245201
0.6161470626
0.5688427526
0.5268987489
0.4899448498
0.457333521
0.4284257968
0.4026706787
0.3796095061
0.3588622604
0.3401128973
0.3230970527
0.3075922739
0.2934102771
0.2803907439
0.2683960506
0.2573056442
0.2470048034
0.2373437884
0.2279549906
0.2174235671
0.1998169168
0.1544357489
0.8435444879
0.8411047494
0.8355152733
0.8214285685
0.794563252
0.7546824317
0.7059561396
0.6543172924
0.604549695
0.559143931
0.5187485768
0.4830727685
0.4515277659
0.4235165183
0.3985192671
0.3761017034
0.3559032459
0.3376235164
0.3210108609
0.3058531792
0.2919706617
0.2792099532
0.2674391692
0.2565423995
0.2464082449
0.236887378
0.2276034197
0.217104807
0.1993763209
0.1538630211
0.8114877573
0.8113535819
0.8081261667
0.7965713364
0.7724838379
0.7355604472
0.6897486533
0.6407424644
0.5932039691
0.5496301057
0.5107367211
0.4763040966
0.4457985922
0.4186631937
0.3944081122
0.3726223802
0.3529640317
0.3351476973
0.318933903
0.3041204868
0.2905357874
0.2780331557
0.2664862427
0.255783599
0.2458169137
0.2364368053
0.2272570421
0.2167875303
0.1989323469
0.1533002924
0.7806220877
0.7827819621
0.7818647468
0.7727324881
0.7512575035
0.7170977989
0.6740196365
0.6275061476
0.5821005418
0.5402940889
0.5028573969
0.4696343107
0.4401426033
0.4138633711
0.3903355194
0.3691704356
0.3500439841
0.3326851681
0.316866194
0.3023944405
0.2891060805
0.2768609283
0.2655379614
0.2550300033
0.245231579
0.2359927544
0.2269163302
0.2164719766
0.1984854065
0.1527477957
0.7509219363
0.7553309858
0.7566530227
0.7498328836
0.7308194151
0.6992507872
0.6587437682
0.6145941873
0.5712304594
0.5311292549
0.4951053918
0.4630593692
0.4345567731
0.4091148689
0.3862999836
0.3657449026
0.3471425539
0.3302357119
0.31480778
0.3006752972
0.2876819676
0.2756938282
0.264594982
0.2542823281
0.244652957
0.2355558543
0.2265817171
0.2161583875
0.198035954
0.1522058434
0.7223594248
0.7289479825
0.7324241672
0.7278049738
0.7111132668
0.6819802001
0.6438973659
0.601992937
0.5605851413
0.5221294275
0.4874759531
0.456575625
0.4290383814
0.4044157314
0.382300164
0.3623449255
0.3442592675
0.3277991571
0.3127587287
0.2989633174
0.2862638662
0.2745323967
0.2636579335
0.2535412527
0.2440817251
0.235126697
0.2262536149
0.2158470218
0.1975844974
0.1516748052
0.6949045283
0.7035846923
0.7091197077
0.706590226
0.6920897133
0.6652507557
0.6294583572
0.5896893141
0.5501563603
0.5132888017
0.4799646964
0.4501797527
0.4235849627
0.3997641912
0.378334853
0.3589697393
0.3413937124
0.3253753694
0.310719131
0.2972587695
0.2848521863
0.2733771559
0.2627274235
0.252807431
0.2435185321
0.2347058525
0.2259324302
0.2155381697
0.1971315964
0.1511551048
0.6685254074
0.6791961386
0.6866876131
0.6861372166
0.673705124
0.6490305955
0.615406215
0.5776708265
0.5399362057
0.5046018846
0.4725675474
0.4438686904
0.4181942631
0.395158644
0.3744029614
0.3556186616
0.3385455314
0.3229642474
0.3086890902
0.2955619262
0.2834473353
0.2722286185
0.2618040428
0.2520814995
0.2429640126
0.2342938811
0.2256185758
0.2152321542
0.1966778679
0.1506472267
0.6431887935
0.6557399146
0.6650809252
0.6664002307
0.655920591
0.6332908292
0.6017218572
0.5659255926
0.5299170947
0.4960634432
0.465280691
0.4376396028
0.4128642092
0.3905976198
0.3705034988
0.3522910844
0.3357144137
0.3205657196
0.3066687273
0.2938730626
0.2820497172
0.2710872916
0.2608883744
0.2513640869
0.2424187967
0.2338913454
0.2253124818
0.2149293444
0.1962239816
0.1501517045
0.6188603675
0.6331757275
0.6442568031
0.6473382438
0.6387011685
0.6180051609
0.588387521
0.5544423217
0.5200917564
0.4876684971
0.4581005193
0.4314898458
0.4075928812
0.3860797686
0.3666355643
0.3489864562
0.3329000904
0.3181797429
0.304658182
0.2921924657
0.2806597387
0.2699536809
0.2599810003
0.2506558233
0.2418835166
0.2334988194
0.2250146019
0.2146301549
0.1957706667
0.1496691311
0.5955051054
0.6114651253
0.6241758227
0.6289141032
0.6220152482
0.6031495578
0.5753866836
0.54321029
0.5104532188
0.4794122812
0.4510236174
0.4254169342
0.4023784906
0.3816038424
0.362798333
0.3457042869
0.3301023315
0.3158063022
0.3026576079
0.2905204342
0.2792778171
0.2688283002
0.2590825096
0.2499573474
0.2413588186
0.2331168933
0.2247254219
0.2143350544
0.1953187146
0.1492001505
0.5730876148
0.5905712948
0.6048014545
0.6110939377
0.6058340763
0.5887019648
0.5627039371
0.5322193386
0.5009947946
0.4712902321
0.4440467411
0.419418526
0.3972193632
0.3771686857
0.3589910499
0.3424441371
0.3273209522
0.3134454097
0.3006671824
0.2888572819
0.277904379
0.2677116738
0.2581935055
0.2492693134
0.24084537
0.2327461859
0.2244454639
0.214044571
0.194868981
0.1487454587
0.5515723998
0.5704589402
0.5860996833
0.593846668
0.5901313568
0.5746420792
0.5503248892
0.5214598335
0.4917100828
0.4632979702
0.437166792
0.4134924035
0.3921139299
0.3727732216
0.355213026
0.3392056179
0.3245558026
0.3110971086
0.29868711
0.2872033419
0.2765398748
0.2666043464
0.2573146111
0.2485924015
0.2403438631
0.2323873482
0.2241752956
0.2137592929
0.1944223846
0.1483058179
0.5309241098
0.5510942046
0.5680386953
0.5771436481
0.5748829332
0.5609511291
0.5382360917
0.51092263
0.482592952
0.4554312923
0.4303808117
0.4076364568
0.3870607176
0.368416452
0.3514636313
0.3359883905
0.3218067744
0.3087614761
0.2967176223
0.2855589785
0.2751847783
0.2655068912
0.2564464814
0.2479273204
0.239855028
0.2320410689
0.2239155334
0.2134798752
0.193979917
0.1478820479
0.5111077611
0.532444587
0.5505886438
0.5609583415
0.5600665161
0.5476117247
0.5264249396
0.5005990518
0.4736375317
0.447686158
0.4236859692
0.4018486886
0.3820583349
0.3640974538
0.3477423001
0.3327921718
0.3190738037
0.3064386342
0.2947589867
0.2839245874
0.2738395971
0.2644199138
0.2555898044
0.2472748194
0.2393796334
0.2317080841
0.2236668503
0.2132070479
0.1935426438
0.1474750277
0.4920888863
0.514478904
0.5337214528
0.5452660898
0.5456614615
0.5346076986
0.5148795978
0.4904808714
0.4648381924
0.4400586923
0.4170795491
0.396127198
0.3771054766
0.3598153723
0.3440485287
0.3296167312
0.3163568794
0.3041287451
0.2928115185
0.2823006069
0.2725048823
0.2633440622
0.2547453136
0.2466356941
0.2389184966
0.2313891823
0.2234299809
0.2129416156
0.1931117051
0.1470857139
0.4738336957
0.4971672511
0.5174106565
0.5300438986
0.5316485931
0.5219239733
0.5035889449
0.4805602649
0.4561895449
0.4325451743
0.4105589566
0.3904701801
0.3722009202
0.3555694308
0.3403818791
0.3264618995
0.3136560473
0.3018320274
0.2908755795
0.2806875313
0.2711812354
0.26228004
0.2539137961
0.2460107925
0.2384724904
0.2310852095
0.223205726
0.2126844659
0.1926883254
0.1467151255
0.4563091939
0.4804809406
0.501631262
0.5152702672
0.5180100338
0.5095464608
0.492542501
0.4708297905
0.4476864271
0.4251420259
0.4041217086
0.3848759278
0.367343531
0.3513589293
0.3367419892
0.3233275785
0.3109714217
0.299548769
0.2889515986
0.2790859109
0.2698693197
0.2612286077
0.2530960979
0.2454010257
0.2380425506
0.2307970772
0.2229949627
0.2124365754
0.192273817
0.1463643649
0.4394832514
0.4643924783
0.4863596276
0.5009250352
0.5047290784
0.4974619544
0.4817303761
0.4612823738
0.4393238986
0.4178458203
0.3977654319
0.3793428326
0.3625322646
0.3471832541
0.3331285821
0.3202137507
0.3083031931
0.2972793318
0.2870400825
0.2774963725
0.2685698714
0.2601905999
0.2522931399
0.2448073754
0.237629682
0.2305257699
0.2227986475
0.2121990138
0.1918695818
0.1460346163
0.4233246895
0.4488755227
0.471573368
0.4869892607
0.4917900672
0.4856580484
0.4711432267
0.4519112673
0.4310972261
0.4106532769
0.3914878787
0.3738693888
0.3577661757
0.3430418868
0.3295414744
0.3171204966
0.3056516472
0.2950241697
0.2851416263
0.2759196336
0.2672837153
0.2591669368
0.2515059221
0.2442309016
0.2372349684
0.2302723513
0.2226178255
0.2119729524
0.1914771208
0.1457271442
0.4078033274
0.4339048336
0.4572512438
0.4734451019
0.4791782902
0.4741230559
0.4607721991
0.4427100475
0.4230018769
0.4035612556
0.3852869208
0.3684542077
0.3530444333
0.3389344253
0.3259805956
0.3140480062
0.3030171864
0.292783849
0.2832569341
0.2743565156
0.2660117753
0.2581586335
0.2507355395
0.2436727545
0.2368595813
0.2300379727
0.2224536351
0.2117596661
0.1910980374
0.1454433169
0.3928899987
0.4194562367
0.4433730828
0.4602757159
0.4668798854
0.4628459443
0.4506088922
0.4336725849
0.4150335265
0.3965667751
0.3791605594
0.3630960255
0.3483663321
0.3348605974
0.3224460101
0.3109966079
0.3004003441
0.2905590712
0.2813868396
0.2728079642
0.2647550945
0.2571668194
0.2499831938
0.2431341853
0.2365047864
0.2298238795
0.222307316
0.2115605435
0.1907340449
0.145184592
0.3785565696
0.4055065765
0.42991971
0.4474651709
0.4548817625
0.4518162789
0.4406453233
0.4247930285
0.4071880365
0.38966701
0.3731069439
0.3577937259
0.3437313189
0.3308202871
0.3189379409
0.3079667928
0.297801816
0.2883506945
0.2795323308
0.2712750731
0.2635148562
0.2561927538
0.2492502063
0.2426165571
0.236171955
0.2296314208
0.2221802177
0.2113770931
0.1903869707
0.1449525415
0.3647759453
0.3920336632
0.4168728555
0.4349983556
0.4431715247
0.4410241529
0.4308738931
0.4160657999
0.3994614754
0.3828593022
0.3671243867
0.3525463637
0.339139021
0.3268135668
0.3154568085
0.3049592466
0.2952224966
0.2861597682
0.2776945784
0.2697591081
0.262292403
0.2552378437
0.2485380338
0.2421213569
0.2358625741
0.2294620565
0.2220738024
0.2112109444
0.1900587608
0.1447488468
0.351522043
0.3790162257
0.4042150892
0.4228609073
0.4317374001
0.4304601444
0.421287355
0.4074855784
0.3918501177
0.3761411858
0.3612113925
0.3473531967
0.3345892831
0.3228407397
0.3120032686
0.301974898
0.2926635147
0.2839875719
0.27587497
0.2682615368
0.2610892633
0.2543036657
0.2478482862
0.2416502074
0.2355782529
0.229317364
0.2219896539
0.2110638587
0.1897514888
0.1445753053
0.3387697757
0.3664338566
0.391929753
0.4110391392
0.4205681777
0.4201152712
0.4118787891
0.3990472904
0.3843504536
0.3695104058
0.3553666971
0.342213731
0.3300822176
0.3189023895
0.3085782678
0.2990149646
0.2901262837
0.2818356569
0.2740751518
0.2667840665
0.2599071826
0.2533919895
0.2471827435
0.241204883
0.2353207361
0.2291990442
0.221929481
0.2109377298
0.1894673564
0.1444338478
0.3264950059
0.3542669508
0.3800008854
0.3995199632
0.4096531417
0.4099809506
0.4026415936
0.3907461277
0.3769592181
0.3629649597
0.349589313
0.3371277779
0.3256182672
0.314999447
0.3051831112
0.2960810154
0.2876125644
0.2797059042
0.2722970721
0.26532868
0.2587481545
0.2525048019
0.2465433745
0.240787321
0.2350919094
0.2291089275
0.2218951205
0.2108345856
0.1892086999
0.1443265353
0.3146744986
0.3424966468
0.3684131567
0.3882908322
0.3989820253
0.4000489511
0.3935694606
0.3825775537
0.3696734193
0.3565031541
0.3438785951
0.3320955327
0.3211982883
0.3111332773
0.3018195382
0.2931750586
0.285124533
0.2776005848
0.2705430408
0.2638976837
0.2576144561
0.2516443352
0.2459323583
0.2403996304
0.2348938055
0.2290489768
0.2218885378
0.2107565905
0.1889779903
0.1442555623
0.3032858647
0.3311047488
0.3571517888
0.3773396615
0.3885449513
0.3903113801
0.3846563712
0.3745373279
0.3624904007
0.3501236743
0.3382343344
0.32711768
0.3168236588
0.3073057881
0.2984898319
0.2902996285
0.2826648719
0.2755224366
0.2688157902
0.2624937597
0.2565086887
0.250813096
0.2453520986
0.240044108
0.2347286095
0.2290212838
0.2219118241
0.2107060404
0.1887778335
0.1442232795
0.292307464
0.3200736509
0.3462024886
0.366654773
0.378332388
0.3807606532
0.3758966351
0.3666215548
0.3554079178
0.3438256977
0.3326568854
0.3221955239
0.3124964165
0.3035195618
0.295196952
0.2874579114
0.2802368675
0.2734747573
0.2671185528
0.2611200198
0.2554338229
0.2500138969
0.244805245
0.239723242
0.234598657
0.2290280625
0.2219671863
0.2106853568
0.188610968
0.1442321752
0.2817183288
0.3093862508
0.3355513576
0.3562248217
0.3683351063
0.3713894878
0.3672849037
0.3588267777
0.3484242559
0.3376090433
0.3271473414
0.3173311717
0.3082194466
0.2997780352
0.2919446919
0.284653889
0.2778445444
0.2714615048
0.2654551383
0.2597800795
0.2543932428
0.2492498831
0.2442947068
0.2394397183
0.2345064264
0.2290716403
0.2220569288
0.2106970685
0.1884802555
0.1442849002
0.2714980458
0.299025837
0.3251848023
0.346038731
0.3585441507
0.362190934
0.358816252
0.3511500989
0.3415384163
0.3314743835
0.3217077636
0.3125277802
0.3039967217
0.2960857294
0.2887378872
0.281892515
0.2754928128
0.2694874257
0.2638300348
0.2584781206
0.2533907968
0.2485245643
0.2438236644
0.2391964099
0.2344545218
0.2291544277
0.2221834315
0.2107437942
0.1883886744
0.1443842538
0.2616266071
0.2889759664
0.3150894354
0.3360856311
0.3489508302
0.3531584214
0.3504863217
0.3435893886
0.3347503829
0.3254235544
0.3163415168
0.3077898885
0.2998336116
0.2924485327
0.2855826719
0.2791799338
0.2731876506
0.2675581909
0.2622485259
0.2572189728
0.2524308482
0.2478418401
0.2433955769
0.2389963693
0.2344456481
0.2292788817
0.2223491056
0.2108282033
0.1883392899
0.1445331898
0.2520842133
0.2792203022
0.3052519552
0.3263548006
0.3395467433
0.3442858951
0.342291535
0.3361436125
0.3280615176
0.3194599997
0.3110537254
0.3031238633
0.2957373057
0.2888740782
0.2824867983
0.2765237499
0.2709363197
0.2656805676
0.2607168004
0.2560082067
0.2515183292
0.2472060266
0.243014178
0.2388428068
0.2344825682
0.2294474567
0.2225563369
0.2109529654
0.1883352326
0.1447348192
0.2428510834
0.2697424274
0.2956590272
0.3168356397
0.3303238779
0.3355680423
0.3342294921
0.3288133359
0.3214751464
0.3135894022
0.305851903
0.2985385004
0.2917173568
0.285372221
0.2794600355
0.2739333555
0.2687476142
0.2638626208
0.259242104
0.2548522198
0.2506588055
0.2466218821
0.2426834772
0.2387390514
0.2345680441
0.2296625223
0.2228073995
0.2111206784
0.1883796494
0.1449923905
0.2339069379
0.2605255321
0.2862971179
0.3075176884
0.3212748342
0.3270007481
0.3262996194
0.3216015276
0.3149974707
0.3078206215
0.3007468639
0.2940458581
0.2877864169
0.2819556518
0.2765146813
0.2714203355
0.2666321861
0.2621139475
0.2578329247
0.2537583784
0.2498585515
0.2460946491
0.2424077574
0.2386885243
0.2347047732
0.2299262706
0.2231043479
0.2113337635
0.1884756367
0.1453092967
0.2252310876
0.2515522476
0.2771524015
0.2983907548
0.3123932498
0.3185818314
0.3185041658
0.3145147648
0.308638857
0.3021669782
0.2957539296
0.2896623359
0.2839611556
0.2786406626
0.2736661664
0.2689989387
0.2646029107
0.2604459536
0.2564991804
0.2527351577
0.2491246538
0.2456301074
0.2421915848
0.2386946969
0.2348952952
0.2302405838
0.2234488594
0.2115943121
0.1886261358
0.1456890293
0.2168000121
0.2428036163
0.2682105255
0.2894453306
0.3036748064
0.3103125631
0.3108501214
0.3075653601
0.3024160197
0.2966483418
0.2908948257
0.2854103201
0.2802636429
0.2754482808
0.2709339796
0.2666868194
0.2626754777
0.2588723392
0.2552526304
0.2517924588
0.2484652627
0.2452347646
0.242039937
0.238761146
0.2351419768
0.2306069414
0.2238420713
0.2119039033
0.1888338011
0.1461351818
0.2085913543
0.2342601601
0.2594570439
0.2806733054
0.2951185617
0.3021996172
0.3033516171
0.3007739631
0.2963545711
0.2912934622
0.2861996629
0.2813197877
0.2767225908
0.2724051848
0.2683423382
0.2645055341
0.2608687626
0.2574093824
0.2541070954
0.2509417948
0.2478897289
0.2449159393
0.2419582211
0.2388915005
0.235446867
0.2310261743
0.2242842507
0.2122632262
0.1891006644
0.1466512105
0.2005672892
0.2258960787
0.2508768159
0.2720704516
0.2867314627
0.2942608374
0.2960362923
0.2941760045
0.2904951378
0.2861454907
0.2817117612
0.2774324273
0.2733768469
0.2695466935
0.2659227523
0.2624827867
0.2592068288
0.256077749
0.2530800958
0.2501977745
0.2474099425
0.244682949
0.2419532913
0.2390902642
0.2358123015
0.2314988257
0.2247749026
0.2126719948
0.189428058
0.1472407323
0.1927141079
0.2176924923
0.2424582061
0.263638429
0.2785305751
0.2865281687
0.2889485128
0.287824576
0.2848954444
0.2812630458
0.2774877243
0.2738008816
0.2702740345
0.2669150407
0.2637121407
0.2606505232
0.257717087
0.2549007633
0.2521912598
0.2495766378
0.2470389788
0.2445458386
0.2420322414
0.2393616365
0.2362397038
0.2320238835
0.2253113841
0.2131274323
0.1898149472
0.1479054326
0.1849181611
0.2095969785
0.2341906155
0.255400696
0.2705675569
0.2790751858
0.2821770035
0.2818166375
0.2796543764
0.2767419502
0.2736169771
0.27050639
0.2674866398
0.264574191
0.261766608
0.2590578095
0.2564423608
0.2539156878
0.2514728283
0.2491059925
0.2468000512
0.2445235487
0.2422097561
0.239716006
0.2367351637
0.2326033456
0.225892356
0.2136266585
0.1902601082
0.148649347
0.1772830608
0.2016317139
0.2260886412
0.247395658
0.2629122234
0.2719980587
0.2758337463
0.2762688957
0.2748844321
0.2726846818
0.2701891556
0.267625198
0.2650783737
0.2625768613
0.2601295795
0.2577403367
0.255411904
0.2531463436
0.2509439146
0.248800731
0.2467041308
0.2446232559
0.2424892246
0.2401528852
0.2372942303
0.2332288767
0.2265061569
0.2141561748
0.1907504096
0.1494606761
0.1692387496
0.1936178581
0.2181976879
0.2398031603
0.255819312
0.2655854738
0.2702144228
0.2714665594
0.2708498956
0.2693298138
0.2674164555
0.2653449543
0.2632152846
0.2610706108
0.2589328931
0.2568164687
0.2547323202
0.2526888245
0.2506909897
0.248738282
0.2468199268
0.2449050358
0.2429219234
0.2407143682
0.2379492395
0.2339224679
0.2271643352
0.2147189727
0.1912880081
0.1503562706
0.1618164131
0.1859166948
0.2106569038
0.2327379976
0.2494385646
0.2600118437
0.2654867226
0.2675451626
0.2676420693
0.2667233479
0.2653049008
0.2636395017
0.2618468355
0.2599871761
0.2580957864
0.2561968797
0.2543086636
0.2524447874
0.2506140324
0.2488183353
0.2470479757
0.2452712723
0.243413011
0.2413093407
0.2386138608
0.2346036733
0.2277929188
0.215245677
0.1917979978
0.1512343537
0.1516663925
0.1778249923
0.204115905
0.2274132632
0.2451058461
0.256536601
0.2627694878
0.2654780176
0.2661064846
0.2656072501
0.2645157189
0.2631075431
0.2615224339
0.2598358016
0.2580935318
0.2563270948
0.2545596279
0.2528081259
0.2510834935
0.2493886461
0.247713483
0.2460240434
0.2442399442
0.2421879529
0.239506846
0.2354546625
0.2285330491
0.2158391979
0.1923758238
0.1522587699
0.1459866209
0.1715630227
0.1986196621
0.2232071043
0.242060411
0.2543200067
0.261102193
0.2641699715
0.2650332011
0.2646901696
0.2637091593
0.26238786
0.2608793289
0.259266302
0.2575983277
0.2559085985
0.2542209452
0.2525525221
0.2509139796
0.2493074796
0.2477214408
0.2461191852
0.2444156562
0.242430062
0.2397900218
0.2357400991
0.2287741956
0.216012265
0.1925639168
0.1527947354
0.1274938886
0.1672393146
0.2015500932
0.2283662624
0.2471632323
0.2586143742
0.2645308976
0.2669190575
0.2673137503
0.2666666701
0.2654951637
0.2640594093
0.2624877451
0.2608469504
0.2591760791
0.2575011298
0.255840678
0.2542076481
0.2526088032
0.2510421016
0.2494906665
0.2479103535
0.2462050491
0.2441775986
0.241432977
0.2371902809
0.2299348435
0.2168561663
0.193316892
0.1540689031
0.1234258825
0.1634920847
0.1986951021
0.2260470943
0.2451985123
0.2570061576
0.2632396125
0.2658667467
0.2664413933
0.2659458826
0.2649154496
0.2636161895
0.2621767693
0.2606629089
0.2591128736
0.2575523493
0.2559999358
0.2544686522
0.252965254
0.2514874168
0.2500174925
0.2485098323
0.2468657065
0.2448838383
0.2421632169
0.2379149767
0.2306159112
0.2174547098
0.1938269275
0.1546275791
0.133533385
0.1603938037
0.1887261294
0.2145237207
0.2346721515
0.2482458689
0.2561732322
0.2601373495
0.2616920531
0.2619143626
0.2614308807
0.2605689725
0.2594928187
0.258288168
0.2570054042
0.2556785198
0.2543325379
0.2529858383
0.2516498807
0.2503266502
0.2490026405
0.2476364333
0.2461338537
0.2442985658
0.2417341686
0.2376526761
0.2305169702
0.2174615664
0.1937754762
0.1544079026
0.1341867338
0.1600447979
0.1866847305
0.2110728671
0.2306093001
0.2442443732
0.2525552586
0.2569668357
0.2589270722
0.2594981145
0.2593209452
0.2587375781
0.2579205551
0.2569592678
0.2559055438
0.2547941551
0.2536508705
0.2524949346
0.2513387499
0.2501852179
0.2490215684
0.2478066829
0.2464457513
0.2447398253
0.2422858148
0.2382810199
0.2311593946
0.2180109707
0.1941127361
0.1546397245
0.1365156071
0.1602622637
0.1851453439
0.2082430652
0.2271368764
0.2406904797
0.249228446
0.2539615733
0.2562324537
0.2570767948
0.2571416155
0.2567800679
0.2561720059
0.2554100666
0.2545470714
0.2536179734
0.2526486249
0.2516584994
0.2506604056
0.2496577665
0.2486383356
0.2475613221
0.2463316315
0.2447485443
0.2424038223
0.2384824502
0.2313925099
0.2181800939
0.1940919948
0.1544841659
0.137476286
0.1603797086
0.1844012807
0.2067412869
0.225136846
0.2385000961
0.2470677727
0.2519313492
0.2543570509
0.255352366
0.2555613552
0.2553409201
0.2548737107
0.2542530258
0.2535310705
0.2527417827
0.2519100646
0.2510546527
0.2501878206
0.2493125636
0.2484161564
0.2474570054
0.2463383749
0.2448560689
0.2425946311
0.2387246948
0.2316279857
0.2183120226
0.1940157438
0.1543172191
0.1382702763
0.1604774265
0.183880006
0.2057087016
0.2237512873
0.2369522384
0.2455064629
0.2504335982
0.25294843
0.2540372962
0.2543407758
0.2542174848
0.2538513237
0.2533353741
0.2527207497
0.2520400774
0.2513170713
0.2505694969
0.2498088365
0.2490373677
0.2482415489
0.2473785891
0.2463496639
0.2449466465
0.2427465526
0.2389058521
0.231781426
0.2183468785
0.1938431086
0.1540760647
0.1387761142
0.1604806962
0.1834518645
0.2049578061
0.2227816979
0.2358751256
0.2444112482
0.2493690415
0.2519327321
0.2530764041
0.2534393325
0.2533816046
0.2530876813
0.2526498598
0.2521177663
0.2515224307
0.2508861447
0.250225483
0.2495509091
0.2488637295
0.2481492959
0.2473632822
0.2464044022
0.2450602484
0.2429001482
0.2390668351
0.2318942654
0.2183276245
0.1936217176
0.1538196039
0.139149886
0.160428853
0.1830546539
0.204341682
0.2220397108
0.235080217
0.2436147495
0.2485957112
0.2511898196
0.2523663964
0.2527666297
0.2527531528
0.2525112265
0.2521323299
0.2516644897
0.2511370039
0.2505706028
0.249980527
0.2493760711
0.2487574111
0.2481086229
0.2473836781
0.2464786936
0.2451769521
0.243040293
0.2391984564
0.2319648321
0.2182607419
0.1933628996
0.1535536646
0.1394216538
0.160332623
0.1826654567
0.2037963325
0.2214331917
0.2344673033
0.2430227203
0.2480308732
0.2506486311
0.2518460248
0.2522692191
0.2522849301
0.2520799508
0.251745267
0.2513274214
0.2508539847
0.2503440687
0.2498114944
0.2492642853
0.2487013788
0.2481054697
0.2474287435
0.2465646849
0.2452923021
0.2431664046
0.2393047481
0.232001772
0.2181586851
0.1930807683
0.1532899149
0.1396283858
0.1602084717
0.1822783947
0.2032877955
0.2209051174
0.2339684603
0.2425668031
0.2476113493
0.2502528684
0.2514655654
0.2519029937
0.2519374786
0.2517582705
0.251456397
0.2510772001
0.2506466521
0.250182283
0.2496964778
0.2491959469
0.2486783396
0.2481249285
0.2474860868
0.2466527153
0.2453998231
0.2432755512
0.2393864794
0.2320095915
0.2180287638
0.1927827862
0.1530315928
0.1397884588
0.1600661823
0.1818928207
0.2027995956
0.2204233245
0.2335419673
0.2422024182
0.2472941158
0.2499630959
0.2511896697
0.2516364663
0.2516827118
0.2515210332
0.2512431106
0.2508934621
0.2504966752
0.2500688082
0.2496208558
0.2491582275
0.2486772812
0.2481578672
0.2475486067
0.2467379312
0.2454970472
0.2433678361
0.2394463725
0.231993305
0.2178772705
0.1924745077
0.1527807513
0.1399154632
0.1599132449
0.1815103112
0.2023238546
0.2199690589
0.2331611946
0.2418993423
0.2470486678
0.249750423
0.2509918799
0.251445797
0.2514992901
0.2513491722
0.2510883729
0.250760994
0.2503904985
0.2499916312
0.2495740897
0.2491420355
0.2486905789
0.2481982017
0.2476118401
0.2468175892
0.2455830701
0.2434442461
0.2394872012
0.2319570552
0.2177088179
0.1921594777
0.1525378285
0.1400181636
0.1597546404
0.1811326978
0.201857062
0.2195315581
0.2328093302
0.2416373341
0.2468536824
0.2495940081
0.2508526935
0.2513131994
0.2513712336
0.2512284558
0.2509795813
0.2506686922
0.250318403
0.2499423249
0.2495489845
0.2491413853
0.24871346
0.248242395
0.2476735351
0.2468907726
0.2456583358
0.243506542
0.2395118557
0.2319044417
0.2175269837
0.1918401681
0.1523028025
0.1401027857
0.1595938376
0.1807616149
0.2013978757
0.2191046779
0.2324756762
0.2414027132
0.2466941184
0.2494786659
0.2507575619
0.2512252007
0.25128635
0.251148017
0.2509071637
0.2506082146
0.2502732014
0.2499147992
0.2495405003
0.249152256
0.2487429111
0.2482884454
0.2477327131
0.2469575294
0.2457238915
0.2435566749
0.2395229784
0.2318384179
0.2173344837
0.1915183001
0.1520753921
0.140173741
0.1594331868
0.1803983024
0.200945972
0.2186849772
0.2321534264
0.2411861955
0.2465593298
0.2493933326
0.2506956333
0.2511715438
0.2512352498
0.2510994669
0.2508637582
0.2505732053
0.2502495081
0.2499045955
0.2495450696
0.2491719438
0.2487770733
0.2483353253
0.2477891624
0.247018436
0.2457810431
0.2435965624
0.2395228902
0.2317613933
0.2171334135
0.1911951289
0.1518552662
0.1402342627
0.1592742927
0.1800436227
0.2005014723
0.2182705855
0.2318382344
0.2409814648
0.246441961
0.2493298145
0.2506585578
0.2511443332
0.2512106699
0.2510762686
0.2508436143
0.2505587225
0.2502431839
0.249908356
0.2495600909
0.2491985792
0.2488147862
0.2483825589
0.2478430618
0.2470742803
0.2458311123
0.2436279382
0.239513552