/*--------------------------------*- C++ -*----------------------------------*\
  =========                 |
  \\      /  F ield         | OpenFOAM: The Open Source CFD Toolbox
   \\    /   O peration     | Website:  https://openfoam.org
    \\  /    A nd           | Version:  8
     \\/     M anipulation  |
\*---------------------------------------------------------------------------*/
FoamFile
{
    version     2.0;
    format      ascii;
    class       volScalarField;
    location    "902";
    object      p;
}
// * * * * * * * * * * * * * * * * * * * * * * * * * * * * * * * * * * * * * //

dimensions      [0 2 -2 0 0 0 0];

internalField   nonuniform List<scalar> 
6300
(
3.395034871
3.691861312
3.884211642
4.134363208
4.486759527
4.882845905
5.269996868
5.620084909
5.923677546
6.180033793
6.390486034
6.556088558
6.67736585
6.754535447
6.787690228
6.776894065
6.722226302
6.623803689
6.481792221
6.296423364
6.068016871
5.797022126
5.484103173
5.130288923
4.737082403
4.306540601
3.844536809
3.370186542
2.874242224
2.143773052
7.270130075
6.841186387
6.152324613
5.574657175
5.21960841
5.046230395
4.972737279
4.93398825
4.898124326
4.857268875
4.813389045
4.770246819
4.730917478
4.697570914
4.671708819
4.654379102
4.646316854
4.648037888
4.659893894
4.68210804
4.714783731
4.757898657
4.81127241
4.874431807
4.946001974
5.023186416
5.107564544
5.214174327
5.290024787
5.035952244
11.09435494
10.82023278
10.25648464
9.716893803
9.350797681
9.17656732
9.134207089
9.148818056
9.172124377
9.186136673
9.189132818
9.184140406
9.174295859
9.161935803
9.148718712
9.135833494
9.12413986
9.114251064
9.106582029
9.101366012
9.098645286
9.098240368
9.099699475
9.102133699
9.103632119
9.101462139
9.099478318
9.112785305
9.074176016
8.730198709
14.98049801
14.75768546
14.24460236
13.70022988
13.28467995
13.05595171
12.98023034
12.98419682
13.00912334
13.02785047
13.03452508
13.03123113
13.02123003
13.00713856
12.99084241
12.97369493
12.95667065
12.94045957
12.92552116
12.91209987
12.90022587
12.88968822
12.87999927
12.87025333
12.85866932
12.84325204
12.82921477
12.83046784
12.77705963
12.43338069
18.86895479
18.65316909
18.15650895
17.60561435
17.15302036
16.87547693
16.76072382
16.74291779
16.75856064
16.77327653
16.77694606
16.7702528
16.7563273
16.73796684
16.71724805
16.69567879
16.67435329
16.65405493
16.63531286
16.61842729
16.60346981
16.59026277
16.57835333
16.56688208
16.55421419
16.53873188
16.5257351
16.52745222
16.47534587
16.14843057
22.78925081
22.56250069
22.06817965
21.51220495
21.03413182
20.71816317
20.56792322
20.52675653
20.53017491
20.53858269
20.53782563
20.52685821
20.50841315
20.48533084
20.45981574
20.43349933
20.40758377
20.38294327
20.36018057
20.33965651
20.32148677
20.30553037
20.29135978
20.27815072
20.26436654
20.24859226
20.23601502
20.23790828
20.18833553
19.87868738
26.74081021
26.48958807
25.98463991
25.41928803
24.91975071
24.57147091
24.38866386
24.32325885
24.31192847
24.3116433
24.30474972
24.28836869
24.26464162
24.23632542
24.20568237
24.17442567
24.14383925
24.1148708
24.0881863
24.06419823
24.04306386
24.02467353
24.00862964
23.99415018
23.97979484
23.96431526
23.95288523
23.95638703
23.91144805
23.61921345
30.71559911
30.430958
29.90579602
29.3260715
28.80597243
28.42905498
28.21611869
28.12626634
28.09836744
28.08735171
28.07270509
28.04976882
28.01997782
27.98590862
27.94981564
27.9134543
27.87816308
27.84494366
27.81451518
27.78733241
27.76359173
27.74321868
27.72585471
27.71077417
27.69664101
27.68237686
27.67322946
27.67988049
27.64107658
27.36593105
34.70749038
34.383996
33.83212705
33.23372484
32.69270587
32.28940436
32.04841886
31.93446551
31.88893071
31.8656877
31.84197895
31.81151151
31.77496572
31.73466915
31.69281945
31.65117934
31.61111689
31.5736732
31.53960563
31.50941052
31.48332207
31.46130555
31.44305
31.42789762
31.41462203
31.40232782
31.39637282
31.40725261
31.37536989
31.11672071
38.71196056
38.34634002
37.76329635
37.14264454
36.57973049
36.15128124
35.8838428
35.74632303
35.68254035
35.64595604
35.61210043
35.57323765
35.52929652
35.4823126
35.4343914
35.38727596
35.34234538
35.30066611
35.26302802
35.22996152
35.2017411
35.17837463
35.15960752
35.14485598
35.13300895
35.12335402
35.12135704
35.13725894
35.1127816
34.87011828
42.72564786
42.31594174
41.69859871
41.052792
40.46676408
40.01371848
39.72096389
39.56041552
39.47804098
39.42727702
39.38237252
39.33434878
39.28241717
39.22830109
39.17399039
39.12118899
39.07127273
39.02532363
38.98415812
38.94833918
38.9181785
38.8937344
38.8748095
38.86089671
38.85100095
38.84458385
38.84718819
38.86871177
38.85199488
38.62496701
46.7460489
46.2911009
45.63722974
44.96391402
44.35349752
43.87595974
43.55863763
43.37551464
43.27434866
43.20876056
43.15205029
43.09418495
43.03371051
42.97203558
42.91101831
42.85231368
42.79728293
42.7470157
42.70234912
42.6638785
42.6319539
42.60668194
42.58792676
42.57525946
42.56779308
42.56514602
42.57288774
42.60050269
42.59186004
42.38027638
50.77123914
50.27038635
49.57835532
48.87560349
48.23955398
47.73733851
47.39588375
47.19052028
47.07042748
46.98949965
46.92033668
46.85202089
46.78249149
46.71284965
46.64481566
46.57998598
46.51970228
46.46505607
46.41690321
46.37586766
46.34233961
46.31647465
46.2981952
46.28714607
46.28254365
46.28413687
46.29747046
46.33156923
46.33131961
46.13513347
54.79967188
54.25255646
53.52113441
52.78734325
52.12447717
51.59721001
51.23181362
51.00441559
50.86527476
50.76857504
50.68639432
50.6070749
50.52801158
50.45001142
50.37465654
50.30347988
50.23779963
50.17870679
50.12707226
50.08354814
50.04856307
50.02231909
50.00479881
49.99571491
49.99437214
50.00062391
50.01994249
50.06087575
50.06936937
49.88866091
58.8300387
58.23649313
57.46471849
56.69852654
56.0077313
55.45491846
55.06558145
54.81623312
54.65790716
54.5450497
54.44934424
54.35851238
54.26946344
54.18272819
54.09975308
54.02200719
53.95078196
53.88716644
53.83204567
53.78609813
53.74978928
53.72336675
53.70686787
53.70006702
53.70234483
53.71363217
53.73929149
53.78739186
53.80501928
53.63997503
62.86118227
62.22115804
61.40825239
60.60847671
59.88870311
59.30976981
58.89634597
58.62502089
58.44734289
58.31796629
58.20826818
58.10544745
58.00598247
57.91014773
57.81925879
57.7347205
57.65779873
57.58957815
57.53095687
57.48263908
57.44512558
57.41870835
57.40347311
57.39924897
57.40547989
57.42214962
57.45447546
57.51007391
57.53727302
57.38817163
66.89202836
66.20554935
65.35085788
64.51644589
63.76670091
63.16101934
62.72324796
62.42982302
62.23258634
62.08633658
61.96220172
61.84693823
61.73664212
61.63135082
61.53225554
61.4407009
61.35792586
61.28501115
61.22286734
61.17222265
61.1336116
61.10736751
61.09362077
61.09224595
61.1027383
61.12511295
61.16441873
61.22785736
61.26511673
61.13231532
70.92154417
70.18867678
69.29162881
68.42162397
67.64095866
67.00786246
66.54539161
66.22965844
66.01261249
65.84913049
65.7101286
65.58198267
65.46045001
65.34535092
65.23775955
65.13896181
65.05017108
64.97246576
64.90676768
64.85382903
64.8142158
64.7882978
64.77624517
64.7779748
64.7930199
64.82140664
64.86799995
64.93963706
64.9874908
64.87141534
74.94870647
74.16953847
73.22961666
72.32312938
71.51062727
70.84942122
70.36182543
70.02350219
69.78635417
69.6052687
69.45097237
69.30951273
69.17634353
69.0510868
68.93470744
68.82843637
68.73346368
68.65086439
68.58157195
68.52636026
68.48582658
68.46037587
68.45021276
68.45528592
68.47515884
68.50985512
68.56404433
68.64426423
68.70329659
68.60443303
78.97247557
78.14710071
77.16382201
76.22001143
75.37478142
74.68474595
74.1715375
73.81027577
73.55268885
73.35361195
73.18359173
73.02838759
72.88318375
72.74741936
72.62195709
72.50797707
72.40664842
72.31904366
72.2461074
72.18863616
72.14725392
72.12239743
72.11430415
72.12294935
72.14791759
72.18921599
72.25131685
72.34052708
72.41136795
72.33025882
82.99177729
82.12028478
81.09318517
80.11124046
79.23240515
78.5127994
77.97343952
77.58883335
77.31042795
77.09294894
76.90676843
76.73738696
76.57974683
76.43312057
76.29827653
76.17634751
76.06848235
75.97575186
75.89911395
75.83938538
75.79721674
75.77307434
75.76722209
75.77965717
75.80998112
75.85817306
75.92851129
76.02715047
76.11047435
76.04771384
87.00548824
86.08795248
85.01657467
83.99570559
83.08239663
82.33245791
81.76635945
81.35795084
81.05830699
80.82199124
80.61920097
80.43520254
80.26471975
80.10687244
79.96234101
79.83221456
79.71762501
79.61964237
79.53923658
79.4772435
79.43434081
79.41102048
79.40757158
79.42401062
79.45994789
79.51532956
79.59424402
79.7027815
79.79931008
79.75553903
91.01242116
90.04889503
88.93277986
87.87220517
86.92355458
86.14250008
85.54903444
85.11631497
84.79497362
84.53936122
84.31949616
84.12043155
83.93669166
83.7672556
83.61272392
83.47414454
83.35263392
83.24926405
83.16501545
83.10074437
83.05715242
83.03475673
83.03386838
83.05451932
83.09632588
83.15919641
83.24704581
83.36598265
83.4764797
83.45238345
95.01131195
94.00182201
92.84050097
91.73944133
90.75457721
89.94160033
89.32009904
88.86251596
88.51897771
88.24358116
88.00615892
87.79156497
87.59414252
87.41274177
87.24788731
87.10059144
86.9719562
86.86305494
86.7748809
86.70831105
86.66406755
86.64269291
86.64451765
86.66958814
86.7175238
86.78819127
86.88534882
87.01522291
87.14049679
87.13680384
99.00081426
97.94535146
96.73833997
95.59601008
94.57405058
93.72832207
93.07807747
92.59503442
92.22876199
91.93306526
91.67758315
91.4469837
91.23544081
91.04168757
90.86617956
90.70989357
90.5739211
90.45933881
90.36715126
90.29825352
90.25339219
90.2331302
90.23781826
90.26751471
90.32184005
90.40062407
90.50748559
90.64886704
90.78976952
90.8072506
102.9794817
101.8780007
100.6247922
99.44039633
98.3804451
97.50110789
96.82137526
96.31223325
95.92265148
95.60610874
95.33204141
95.08494031
94.8588262
94.65232089
94.46581644
94.30025926
94.15673041
94.03630819
93.94001197
93.8687547
93.82330397
93.80424454
93.81194429
93.84647497
93.90745984
93.99468827
94.11167206
94.26516935
94.42259551
94.46205859
106.9457617
105.798173
104.4982343
103.2709588
102.1721013
101.2582707
100.5482663
100.0123443
99.59883991
99.26087371
98.96767303
98.70355782
98.46240541
98.24273602
98.04488214
97.86976172
97.71844751
97.59202265
97.49151767
97.41786492
97.37185153
97.35408372
97.36494665
97.40452376
97.4724416
97.56845733
97.69600537
97.86226034
98.03714566
98.09943982
110.8979893
109.7041535
108.3569186
107.0859285
105.9472249
104.9979842
104.2568855
103.6934606
103.2553809
102.8953825
102.5824738
102.3008105
102.0441361
101.8108764
101.6013095
101.4163269
101.2569934
101.1243977
101.0195818
100.9434937
100.8969438
100.8805562
100.894734
100.9395734
101.0147076
101.119868
101.2584449
101.4381406
101.6314658
101.7174758
114.8343655
113.5940925
112.1989568
110.8833882
109.7038718
108.7182698
107.9452125
107.3535191
106.8901722
106.5074988
106.1742809
105.8745144
105.6018174
105.3545278
105.1328728
104.9377201
104.7701276
104.631188
104.5219561
104.4433962
104.3963362
104.3814204
104.3990695
104.4493941
104.5320366
104.6467141
104.7968123
104.990668
105.2034516
105.3140974
118.7529581
117.4659984
116.0223151
114.6612714
113.4399398
112.416986
111.6110633
110.990291
110.5009438
110.094919
109.7407632
109.4223151
109.1330758
108.8713025
108.6371742
108.431537
108.2554421
108.109985
107.996232
107.9151635
107.8676239
107.854277
107.8755599
107.9315997
108.0220531
108.1466352
108.3087726
108.5175449
108.7508472
108.8870853
122.6516864
121.3177248
119.8247949
118.4173391
117.1531527
116.0918149
115.2520729
114.6013651
114.0852417
113.6551504
113.2793964
112.9416661
112.6353486
112.358625
112.1116297
111.8951875
111.7103442
111.558198
111.4398232
111.356214
111.3082309
111.2965545
111.3216398
111.3836321
111.4822102
111.617104
111.7918263
112.0163103
112.2712297
112.4340472
126.5283044
125.1469582
123.6040271
122.1491756
120.8410472
119.7402434
118.8656782
118.1841291
117.6404101
117.1855017
116.7874596
116.4298207
116.1058692
115.8137154
115.5534521
115.3258833
115.1320467
114.9730425
114.8499511
114.7637764
114.7153938
114.7054991
114.7345648
114.80276
114.9097902
115.055418
115.2432962
115.4843228
115.761995
115.95241
130.3803948
128.9512024
127.3574498
125.8541646
124.5009554
123.3595513
122.4491056
121.735757
121.1635733
120.6830551
120.262003
119.8838058
119.5416482
119.2335741
118.9596369
118.7206192
118.5175497
118.3515261
118.2236327
118.1348806
118.0861544
118.0781641
118.1114005
118.1860568
118.3018764
118.4586789
118.6603133
118.9187515
119.2203467
119.4394037
134.2053541
132.7277697
131.0823008
129.529481
128.1299907
126.9467885
125.9993432
125.2531804
124.6516151
124.144653
123.6998352
123.3004055
122.9394538
122.6149614
122.3269431
122.0761589
121.8636261
121.690436
121.5576707
121.4663428
121.4173439
121.411395
121.449003
121.5303916
121.6553552
121.8237925
122.0398076
122.316558
122.6432765
122.8920444
138.0003744
136.473758
134.7755921
133.1720607
131.7250176
130.4987527
129.5131233
128.7330702
128.1011514
127.5668677
127.0974954
126.6761352
126.2957877
125.9543746
125.6518714
125.3890145
125.1668037
124.9863183
124.8486311
124.7547515
124.7055709
124.7018166
124.7440142
124.8324213
124.9668932
125.1474394
125.3784864
125.674481
126.0275493
126.3071173
141.7624299
140.1860361
138.4340964
136.7785924
135.2826435
134.0119699
132.9868965
132.171809
131.5085069
130.9459773
130.4512274
130.0072179
129.6068635
129.2480273
128.9306463
128.6554271
128.4233461
128.2354624
128.0928326
127.9964512
127.9472038
127.9458208
127.992843
128.0885671
128.2329268
128.4260748
128.6728257
128.989025
129.3696926
129.6811607
145.4882639
143.8612294
142.0543235
140.3454806
138.7991746
137.4826561
136.416796
135.5654578
134.8696817
134.2779333
133.7569497
133.2895534
132.8685756
132.4918232
132.1591895
131.8713456
131.6292364
131.4338889
131.28633
131.1875325
131.1383653
131.1395534
131.1916538
131.2950092
131.4496489
131.6559044
131.91905
132.2564352
132.6659618
133.0104382
149.1743612
147.4956873
145.6324918
143.8688266
142.2706008
140.9066943
139.7986085
138.9097197
138.1803119
137.5583242
137.0102195
136.5186847
136.0764712
135.6813267
135.3330955
135.0324054
134.7801534
134.5773228
134.4248979
134.3238113
134.2749057
134.2788968
134.3363529
134.4476689
134.6129893
134.8328669
135.1131147
135.4726837
135.9123347
136.2909256
152.8169413
151.0854746
149.1645099
147.3443928
145.6925484
144.2795893
143.1277303
142.1998998
141.4356316
140.7823321
140.2061913
139.6897619
139.225714
138.811733
138.4476059
138.1339004
137.8714533
137.6611832
137.5040118
137.4008188
137.3524049
137.3594633
137.4225741
137.5421947
137.7186062
137.9526288
138.2506913
138.6334444
139.1044782
139.5182756
156.4119239
154.6263305
152.6459314
150.7675638
149.060243
147.5964201
146.3991174
145.4308535
144.6304195
143.9446895
143.3395774
142.7975013
142.3110495
141.8778369
141.4975794
141.1707661
140.8981496
140.6805623
140.5188403
140.4137865
140.3661435
140.3765744
140.4456673
140.5739491
140.7618654
141.0105527
141.3271409
141.7340767
142.2377299
142.6878
159.9549161
158.11365
156.0719305
154.1333044
152.3684567
150.8517887
149.6072253
148.5969245
147.758941
147.0396152
146.4045852
145.836133
145.3267587
144.873993
144.4774598
144.1375463
143.8548915
143.6302088
143.4642216
143.3576328
143.3111052
143.3252577
143.4006847
143.5379933
143.7378238
144.0016877
144.3374998
144.7695893
145.3070578
145.7944274
163.4411886
161.5424451
159.437247
157.4361024
155.6114445
154.0397464
152.7459402
151.6918714
150.814874
150.0607512
149.394864
148.7993535
148.2666176
147.7940836
147.3812544
147.0283788
146.7359464
146.5045159
146.3346614
146.2269543
146.1819562
146.200227
146.2823646
146.4290711
146.6412154
146.9207416
147.276446
147.7346242
148.3070447
148.8326786
166.8656381
164.9073041
162.736139
160.6699034
158.7828674
157.1537091
155.8084856
154.7087834
153.7912272
153.0010852
152.3034337
151.6802615
151.1238445
150.631475
150.2024941
149.8369667
149.5351852
149.2975075
149.1243177
149.0160183
148.9730444
148.9958822
149.0851307
149.2416013
149.4664303
149.7620657
150.1382776
150.6234111
151.2318321
151.7966154
170.2227744
168.2023515
165.9623144
163.8280253
161.8756919
160.1863496
158.7873088
157.6399588
156.6802302
155.852851
155.122601
154.4712958
153.8910544
153.3789855
152.9342153
152.5565667
152.2460729
152.0028351
151.8269968
151.7187564
151.678389
151.706291
151.8030636
151.969649
152.2074938
152.5196231
152.9168804
153.4297389
154.0750869
154.6797945
173.5066817
171.4211859
169.1088472
166.9030501
164.8820628
163.1294562
161.6739426
160.4767796
159.4732149
158.6074268
157.8438756
157.1641634
156.5602005
156.0288474
155.5689388
155.1799766
154.8616625
154.6137751
154.4361601
154.328765
154.2916794
154.3251926
154.4299095
154.6069237
154.8580444
155.1869557
155.605681
156.1468957
156.8299403
157.4752114
176.7110024
174.5568268
172.1680765
169.8866871
167.7931401
165.973756
164.4588213
163.2095324
162.1604603
161.2552071
160.4578695
159.7497752
159.1225439
158.5726919
158.0986629
157.6995408
157.3746068
157.1232383
156.9449245
156.8393136
156.8062752
156.8459821
156.9590466
157.1467451
157.4113038
157.7571532
158.1976062
158.7676164
159.4889142
160.1752103
179.8288747
177.6015962
175.1314366
172.76955
170.5988412
168.7086466
167.1310231
165.8271783
164.7309931
163.785443
162.954184
162.2181664
161.5685973
161.0015195
160.5148562
160.1071532
159.7771658
159.5237836
159.3460711
159.243334
159.2151956
159.2616991
159.3834774
159.5820207
159.8600339
160.2227909
160.6850088
161.2839992
162.0438334
162.7713942
182.8530331
180.5471198
177.9893561
175.5409905
173.2876323
171.3219645
169.6780478
168.317161
167.1724493
166.1861593
165.3213722
164.558503
163.888173
163.3057747
162.8085442
162.3943426
162.0612812
161.8076737
161.6320945
161.5334633
161.5111377
161.5650305
161.6958084
161.9052138
162.1965003
162.5758806
163.059593
163.6873961
164.4856889
165.2544736
185.7753924
183.3838042
180.7306072
178.188344
175.8457268
173.7992078
172.0851088
170.6648032
169.4705782
168.4437682
167.546659
166.7588883
166.0702441
165.4752357
164.9702107
164.5521822
164.2184917
163.9667884
163.7951022
163.7019372
163.6863723
163.7481952
163.8881327
164.1082237
164.4123346
164.8077166
165.3122515
165.9682381
166.8044369
167.6140377
188.5883753
186.1018608
183.3431069
180.6975643
178.2576178
176.1240252
174.3356343
172.8538501
171.6098537
170.5437405
169.6166462
168.8070736
168.1036435
167.4996894
166.9904322
166.5718628
166.2404345
165.9930593
165.8271852
165.7408899
165.7329823
165.8031452
165.9521914
166.1824986
166.4986132
166.9089157
167.43304
168.1159347
168.9888297
169.8383349
191.2806617
188.6868527
185.8090869
183.0482871
180.501287
178.2737562
176.4072558
174.862954
173.5704259
172.4679672
171.515016
170.6884352
169.9752421
169.3672502
168.8583054
168.4432116
168.1174434
167.8771383
167.7191608
167.6411809
167.6417643
167.7205195
167.8783849
168.1181181
168.4449954
168.8685972
169.4103994
170.1181129
171.0256416
171.9134706
193.8507975
191.1321337
188.1171144
185.2253024
182.5591104
180.2298507
178.2818006
176.6752473
175.3372568
174.203421
173.2306685
172.3935445
171.6769371
171.0707689
170.567283
170.1599839
169.8433346
169.6127167
169.4644578
169.3958739
169.4053405
169.4924406
169.6582708
169.9059973
170.2416549
170.6760517
171.2325415
171.9616752
172.9003321
173.823736
196.2646019
193.3964901
190.2183896
187.1755298
184.3770124
181.9399188
179.9104643
178.2465578
176.8711151
175.7155923
174.7332812
173.8955834
173.1847086
172.588378
172.0971042
171.7030897
171.3998599
171.182148
171.0458542
170.9880416
171.0069785
171.1022754
171.2752214
171.529401
171.8715941
172.313803
172.8812093
173.6272278
174.5921147
175.5470099
198.5849627
195.527505
192.1500034
188.9283729
185.9799442
183.4275813
181.3176713
179.6030484
178.1999022
177.0335531
176.052267
175.2234352
174.5261413
173.9457605
173.4711298
173.0933159
172.8051073
172.6007869
172.4760037
172.4277054
172.4541476
172.5550278
172.7318443
172.9885769
173.3326755
173.7771924
174.3488953
175.1037699
176.0857181
177.0643029
200.5773594
197.275721
193.6443043
190.2152166
187.111105
184.4545441
182.2861577
180.5482157
179.1459727
177.9959538
177.0400038
176.2409699
175.5748125
175.0248675
174.5787293
174.226771
173.9614444
173.7769059
173.6687932
173.6341061
173.6711898
173.7798696
173.9618345
174.2213707
174.5664375
175.0108742
175.5826335
176.3398233
177.3300591
178.3230783
202.8611737
199.2009035
195.2385202
191.5535152
188.2701793
185.505141
183.2848585
181.5334419
180.1404186
179.0112812
178.0808388
177.3076569
176.6652377
176.1356525
175.7059762
175.366489
175.1097586
174.9301407
174.823489
174.7870025
174.8192055
174.920088
175.0915153
175.3380002
175.6678212
176.0952204
176.64846
177.3858847
178.3574276
179.3407952
203.5152421
199.3849501
194.9954892
191.0782947
187.708553
184.953422
182.803095
181.1519957
179.8689135
178.8477457
178.0179889
177.3363478
176.7761679
176.3201306
175.9561849
175.6754817
175.4713364
175.3386871
175.2738008
175.2741331
175.3383238
175.4663552
175.6599705
175.9234586
176.2647852
176.6977724
177.2500323
177.9789986
178.9345773
179.8976375
207.6607857
202.6275985
197.6365292
193.3826546
189.8507226
187.0378401
184.87878
183.23068
181.9439993
180.9067967
180.0484425
179.3273858
178.7189966
178.2077262
177.7829083
177.4367107
177.1631755
176.9577496
176.817061
176.7388327
176.7219136
176.7664624
176.874382
177.0501044
177.3017209
177.6430248
178.1002251
178.7249053
179.5618479
180.4263272
199.5448869
194.0032898
188.8107906
184.9405167
181.9834471
179.7587724
178.153528
177.0074913
176.1693632
175.5354354
175.0456243
174.6672343
174.3820584
174.1789574
174.0502281
173.9900005
173.9935838
174.0571841
174.1777818
174.3530782
174.5815106
174.8623745
175.1961272
175.5849484
176.0335026
176.5505773
177.15585
177.8926286
178.7892231
179.6322124
220.1201678
211.4183438
204.6850289
200.2045131
196.8804668
194.2920199
192.2700974
190.6514863
189.2992824
188.1261222
187.0833165
186.1440384
185.2922972
184.517368
183.8113103
183.1679372
182.5824055
182.0510215
181.5711572
181.1412333
180.7607932
180.4307193
180.1536808
179.9349298
179.7834633
179.7138989
179.7520614
179.9476241
180.3591937
180.886243
166.5249829
169.2176053
169.8170611
169.2997334
168.700284
168.2948496
168.0856097
168.0230012
168.0567512
168.1521205
168.2915661
168.4687642
168.6825026
168.9331559
169.2212299
169.5469541
169.9102776
170.3109537
170.7486401
171.2229844
171.7337104
172.2807472
172.8644223
173.4857622
174.1468091
174.8509798
175.6040846
176.4118414
177.2397277
177.8861559
180.7227027
182.784989
183.5829138
183.0477855
182.1055006
181.1833185
180.3919194
179.7394108
179.2008355
178.7464583
178.3544925
178.0123213
177.7133052
177.4538171
177.2315704
177.0448891
176.8924411
176.773162
176.6862603
176.6312528
176.6080409
176.6170427
176.6593957
176.7372416
176.8540468
177.0146615
177.2235658
177.4767756
177.7441403
177.9564506
174.8770369
176.3282801
177.0632013
177.0335298
176.6367139
176.1429196
175.6823961
175.3002699
174.9967775
174.7571485
174.5676811
174.4199114
174.3094444
174.2340061
174.192191
174.1828998
174.2051516
174.258051
174.3408091
174.452776
174.5934824
174.7626897
174.9604264
175.1869608
175.4425843
175.7268189
176.0354691
176.3511945
176.6261401
176.7824225
175.5233513
176.5679845
177.2250219
177.3361507
177.1203885
176.7634643
176.3799167
176.0269003
175.7219388
175.463531
175.2456717
175.063684
174.9149237
174.7979626
174.7118482
174.655739
174.6287925
174.6301634
174.6590381
174.7146674
174.7963949
174.9036663
175.0359836
175.1927354
175.3727703
175.5732996
175.7861112
175.9867461
176.1235704
176.1558822
174.9613566
175.6376758
176.079717
176.1951412
176.0920295
175.8702344
175.6055829
175.3455383
175.1106572
174.905509
174.7291613
174.5802982
174.4583743
174.3633096
174.2950677
174.2534494
174.2380578
174.2483357
174.2836167
174.3431638
174.4261823
174.5317955
174.6589287
174.8060276
174.9704826
175.1473503
175.3253462
175.4763058
175.5485012
175.5178032
174.84794
175.3069213
175.6101968
175.6973849
175.6377209
175.4892022
175.29919
175.1018951
174.9151628
174.7454631
174.5946225
174.4635649
174.3533152
174.2648815
174.1990059
174.1560642
174.1360827
174.138805
174.1637549
174.210278
174.2775475
174.3645152
174.46976
174.5911517
174.7252182
174.8658045
175.000049
175.0985359
175.1126829
175.0346965
174.6467762
174.9552943
175.1441726
175.185763
175.1355584
175.0292422
174.893575
174.7494712
174.6089935
174.4774039
174.3571591
174.2502192
174.1585555
174.0839444
174.0277389
173.9907978
173.9735239
173.9759397
173.9977589
174.0384268
174.0971203
174.1726863
174.2634717
174.3669657
174.4791565
174.5931976
174.6955636
174.7572113
174.7340007
174.628959
174.4755725
174.6875772
174.7984948
174.7998041
174.744342
174.6588766
174.5580105
174.4524757
174.34845
174.2487587
174.1552671
174.0700932
173.9955977
173.933981
173.8869928
173.8558371
173.8412057
173.84335
173.8621508
173.897156
173.9475783
174.0122292
174.0893438
174.1762237
174.2686149
174.3594292
174.4350987
174.4676997
174.4177405
174.2963723
174.2957813
174.442564
174.49781
174.4652342
174.3983868
174.3215127
174.2425665
174.1650297
174.089939
174.0173132
173.9477592
173.8829575
173.8252207
173.7768768
173.7398702
173.715615
173.7050008
173.7084511
173.7259829
173.7572412
173.8014932
173.8575627
173.923656
173.9970248
174.0733796
174.1456729
174.2006204
174.2116674
174.1436003
174.0133377
174.1185944
174.2212501
174.2380561
174.1794499
174.10022
174.0251899
173.959304
173.9013138
173.8482345
173.7974697
173.7481506
173.7012055
173.6586166
173.6226151
173.5951737
173.5777984
173.5714915
173.5767929
173.593824
173.6223176
173.6616086
173.7105674
173.7674399
173.8295318
173.8926543
173.9499472
173.9885456
173.9832368
173.9025126
173.7675789
173.9427487
174.0148002
174.0048378
173.9267446
173.8360498
173.7593625
173.7007778
173.6561737
173.6195899
173.5862017
173.5536877
173.5220994
173.4929274
173.4681576
173.4496678
173.4389577
173.4370737
173.4446209
173.4617961
173.4884064
173.5238593
173.5670996
173.6164585
173.6693549
173.7217704
173.7670997
173.7929147
173.7751942
173.6855613
173.5484877
173.7702205
173.8207657
173.7923192
173.7001203
173.5997135
173.5197837
173.4648218
173.4291406
173.4046861
173.3848435
173.3659858
173.3472865
173.3296789
173.314818
173.3044076
173.2998694
173.3022377
173.3121432
173.3298304
173.3551686
173.387639
173.4262752
173.4695163
173.5149272
173.5586902
173.5944671
173.6102195
173.5829264
173.4868556
173.3490839
173.6014963
173.6367034
173.5955602
173.4934209
173.3851892
173.3014805
173.2478421
173.2179162
173.2022405
173.1928134
173.184895
173.1768425
173.1690291
173.1627452
173.1594699
173.1605044
173.1668286
173.1790671
173.1974901
173.2220176
173.2522008
173.2871649
173.3254666
173.364827
173.4016319
173.4297876
173.4375773
173.4027978
173.3019789
173.1643564
173.4369618
173.4611255
173.411394
173.3025113
173.1882256
173.1007683
173.0470555
173.0206564
173.0112181
173.0096929
173.0104198
173.0110377
173.011392
173.0124052
173.0153133
173.0212693
173.0311732
173.0456198
173.064888
173.0889355
173.1173777
173.1494277
173.1837605
173.2182473
173.2494626
173.2715213
173.2729526
173.2322238
173.1278369
172.990876
173.2766631
173.2928274
173.2374394
173.1242333
173.005439
172.9145407
172.8599376
172.8355245
172.8304212
172.8347959
172.842266
172.8498608
172.8569441
172.8640836
172.872272
172.8825024
172.8955809
172.9120577
172.9322063
172.9560107
172.9831421
173.0128945
173.0440534
173.0746274
173.101355
173.1185189
173.1148262
173.0693002
172.962204
172.826238
173.1205168
173.1308775
173.0719443
172.9562397
172.8342396
172.7403332
172.68442
172.6609351
172.6587172
172.6674078
172.6800748
172.6932275
172.7057961
172.7180212
172.730662
172.7445528
172.7604
172.7787009
172.7997134
172.8234389
172.8495937
172.8775451
172.9061743
172.9336116
172.9567338
172.9699503
172.9620887
172.9126459
172.8034904
172.6687544
172.9683524
172.9745193
172.9135707
172.7967394
172.6726113
172.5761763
172.5187722
172.4954695
172.4950312
172.5068138
172.5234448
172.5409822
172.5579768
172.5743786
172.5907317
172.6077198
172.6259488
172.6458587
172.667686
172.6914417
172.7168784
172.7434243
172.7700426
172.7949676
172.8151886
172.8252043
172.8139197
172.7612461
172.6505443
172.5172177
172.8199703
172.8231353
172.7612835
172.6443514
172.5189821
172.4205221
172.361559
172.3378826
172.3384226
172.3523639
172.3719732
172.3929301
172.4134603
172.4332583
172.4526758
172.4722558
172.4925087
172.5138161
172.5363893
172.5602423
172.5851558
172.6106079
172.6356316
172.6585447
172.676424
172.6838295
172.6697103
172.6143531
172.5025222
172.370752
172.6751618
172.6762179
172.6142735
172.4980086
172.372122
172.2720983
172.2115789
172.187147
172.1880837
172.2034645
172.2252669
172.2488561
172.272182
172.2947154
172.316637
172.3383631
172.3603161
172.3828206
172.4060606
172.4300475
172.4545833
172.4791856
172.5029444
172.5242444
172.540229
172.5454939
172.5290073
172.4714093
172.3587972
172.2287092
172.5337287
172.5333498
172.4719062
172.3568852
172.2310628
172.1298499
172.0678258
172.0424176
172.0433254
172.0595884
172.0829594
172.1085435
172.1340539
172.1587673
172.1827145
172.2061999
172.2295643
172.2530802
172.276903
172.3010387
172.3253028
172.3492446
172.3719983
172.3920021
172.4064478
172.4099465
172.3914686
172.3319931
172.2188951
172.0905966
172.395487
172.3941827
172.3336691
172.2203188
172.0950237
171.9929425
171.9294977
171.9029844
171.9035537
171.9202697
171.9447156
171.9717798
171.9989723
172.0254033
172.050972
172.0758833
172.1004061
172.1247644
172.1490858
172.1733688
172.1974373
172.2208642
172.2428172
172.2617757
172.2749658
172.2769975
172.2568335
172.1957833
172.0824518
171.956032
172.2602677
172.2584242
172.1991487
172.0877772
171.9633752
171.8607062
171.7959444
171.7682545
171.7682615
171.785101
171.8102331
171.8383635
171.8668282
171.894593
171.9214432
171.9474964
171.9729579
171.9980074
172.0227468
172.0471646
172.0710902
172.0941121
172.1154247
172.1335367
172.1456965
172.1465012
172.1248999
172.0625304
171.9491822
171.8247156
172.1279198
172.1258295
172.0680071
171.9588323