/*--------------------------------*- C++ -*----------------------------------*\
  =========                 |
  \\      /  F ield         | OpenFOAM: The Open Source CFD Toolbox
   \\    /   O peration     | Website:  https://openfoam.org
    \\  /    A nd           | Version:  8
     \\/     M anipulation  |
\*---------------------------------------------------------------------------*/
FoamFile
{
    version     2.0;
    format      ascii;
    class       surfaceScalarField;
    location    "902";
    object      phi;
}
// * * * * * * * * * * * * * * * * * * * * * * * * * * * * * * * * * * * * * //

dimensions      [0 3 -1 0 0 0 0];

internalField   nonuniform List<scalar> 
12360
(
-2.104318612e-12
-3.583414512e-13
-5.966105042e-12
9.521439515e-12
-1.199362424e-11
3.022253428e-11
-2.040039386e-11
6.270114214e-11
-3.14669244e-11
1.088943641e-10
-4.548088694e-11
1.71470307e-10
-6.270932958e-11
2.537856799e-10
-8.336387519e-11
3.597141958e-10
-1.075650527e-10
4.934562031e-10
-1.353133024e-10
6.594049658e-10
-1.664688214e-10
8.620736346e-10
-2.007385692e-10
1.106057699e-09
-2.376678165e-10
1.396012711e-09
-2.766343963e-10
1.736638319e-09
-3.168446149e-10
2.132665685e-09
-3.573304014e-10
2.588847437e-09
-3.969474962e-10
3.109949727e-09
-4.343741077e-10
3.700745918e-09
-4.681108665e-10
4.366011836e-09
-4.964810135e-10
5.110522304e-09
-5.176317734e-10
5.939047277e-09
-5.295363958e-10
6.85634921e-09
-5.299994542e-10
7.867179099e-09
-5.166642449e-10
8.976273321e-09
-4.870297741e-10
1.018836428e-08
-4.384836389e-10
1.150828675e-08
-3.683774832e-10
1.29416547e-08
-2.741617892e-10
1.449875861e-08
-1.532484609e-10
1.621592035e-08
1.82787188e-08
-1.524826455e-12
1.166485014e-12
-5.731852209e-12
1.372846528e-11
-1.239907391e-11
3.688975599e-11
-2.165434254e-11
7.195641079e-11
-3.367076605e-11
1.209107876e-10
-4.865617973e-11
1.864557207e-10
-6.682670305e-11
2.719562033e-10
-8.83663822e-11
3.812538749e-10
-1.13380956e-10
5.18470777e-10
-1.418593773e-10
6.878833871e-10
-1.736494889e-10
8.938637462e-10
-2.084450144e-10
1.140853225e-09
-2.457786592e-10
1.433346355e-09
-2.850179025e-10
1.775877563e-09
-3.25362132e-10
2.173009914e-09
-3.658405016e-10
2.629325807e-09
-4.053105991e-10
3.149419825e-09
-4.424577171e-10
3.737893036e-09
-4.757947928e-10
4.399348912e-09
-5.036626721e-10
5.138390183e-09
-5.242318188e-10
5.959616423e-09
-5.355043592e-10
6.86762175e-09
-5.353173536e-10
7.866992094e-09
-5.213489709e-10
8.962304938e-09
-4.911284593e-10
1.015814377e-08
-4.420558452e-10
1.145921413e-08
-3.714407207e-10
1.287103957e-08
-2.765017112e-10
1.44038196e-08
-1.540655158e-10
1.609348416e-08
1.812465328e-08
-1.329716959e-12
2.496201986e-12
-5.317257884e-12
1.771600622e-11
-1.206014343e-11
4.363264155e-11
-2.165499077e-11
8.155125814e-11
-3.419436141e-11
1.334501583e-10
-4.979164329e-11
2.020530025e-10
-6.858468478e-11
2.907492448e-10
-9.070794779e-11
4.03377138e-10
-1.162428754e-10
5.440057047e-10
-1.451689346e-10
7.168094463e-10
-1.773304898e-10
9.260253014e-10
-2.12419505e-10
1.17594224e-09
-2.499674336e-10
1.470894284e-09
-2.893411207e-10
1.81525125e-09
-3.297402464e-10
2.21340904e-09
-3.701955821e-10
2.669781142e-09
-4.095678531e-10
3.188792096e-09
-4.46546854e-10
3.774872037e-09
-4.796516179e-10
4.432453676e-09
-5.072305038e-10
5.165969069e-09
-5.274622892e-10
5.979848209e-09
-5.383578127e-10
6.878517274e-09
-5.377630449e-10
7.866397326e-09
-5.23363995e-10
8.947905888e-09
-4.926950685e-10
1.012747485e-08
-4.431566e-10
1.140967566e-08
-3.720352492e-10
1.279991822e-08
-2.764952694e-10
1.430827962e-08
-1.535710761e-10
1.597055996e-08
1.797108221e-08
-1.262374534e-12
3.758576531e-12
-5.229813375e-12
2.168344508e-11
-1.210952601e-11
5.05123542e-11
-2.203132377e-11
9.147305592e-11
-3.506786459e-11
1.464866991e-10
-5.127855814e-11
2.182636961e-10
-7.073586369e-11
3.102065504e-10
-9.351719149e-11
4.261584658e-10
-1.19664156e-10
5.701526692e-10
-1.491316652e-10
7.462769555e-10
-1.817489035e-10
9.586425397e-10
-2.171975913e-10
1.211390928e-09
-2.550018964e-10
1.508698589e-09
-2.945237357e-10
1.854773089e-09
-3.349601818e-10
2.253845486e-09
-3.753418366e-10
2.710162797e-09
-4.145315129e-10
3.227981772e-09
-4.512240429e-10
3.811564567e-09
-4.839456528e-10
4.465175286e-09
-5.110548038e-10
5.19307822e-09
-5.30743326e-10
5.999536731e-09
-5.410382673e-10
6.888812215e-09
-5.398058123e-10
7.865164871e-09
-5.247567117e-10
8.932856787e-09
-4.934567399e-10
1.009617487e-08
-4.433414732e-10
1.13595604e-08
-3.717372803e-10
1.272831403e-08
-2.758874939e-10
1.421242983e-08
-1.530556263e-10
1.58477281e-08
1.781802658e-08
-1.261568614e-12
5.020145157e-12
-5.301415832e-12
2.572329231e-11
-1.236003619e-11
5.757097457e-11
-2.259049169e-11
1.017035114e-10
-3.606691282e-11
1.599631203e-10
-5.282364054e-11
2.350204238e-10
-7.288899934e-11
3.302719092e-10
-9.629142112e-11
4.495608876e-10
-1.230309591e-10
5.968922072e-10
-1.530325172e-10
7.762785136e-10
-1.86104756e-10
9.917147785e-10
-2.21915082e-10
1.247201254e-09
-2.599775189e-10
1.546761026e-09
-2.996471622e-10
1.894442732e-09
-3.401173284e-10
2.294315652e-09
-3.804178577e-10
2.750463327e-09
-4.194139881e-10
3.266977903e-09
-4.558058357e-10
3.847956415e-09
-4.8812852e-10
4.49749797e-09
-5.147528583e-10
5.219702559e-09
-5.338865228e-10
6.018670396e-09
-5.435771591e-10
6.898502851e-09
-5.417160215e-10
7.863303733e-09
-5.260442475e-10
8.917185014e-09
-4.941630715e-10
1.00642937e-08
-4.435477999e-10
1.130894513e-08
-3.715680736e-10
1.26563343e-08
-2.755358449e-10
1.41163976e-08
-1.528138239e-10
1.572500608e-08
1.766521276e-08
-1.302073846e-12
6.322219014e-12
-5.472247319e-12
2.989346579e-11
-1.275136061e-11
6.485008787e-11
-2.329859656e-11
1.122507474e-10
-3.719029303e-11
1.738548167e-10
-5.444892938e-11
2.522790602e-10
-7.507462795e-11
3.508976078e-10
-9.905769164e-11
4.735439513e-10
-1.263603056e-10
6.241948212e-10
-1.56876501e-10
8.06794709e-10
-1.903920715e-10
1.025230349e-09
-2.265578734e-10
1.283367056e-09
-2.648760494e-10
1.585079202e-09
-3.046936713e-10
1.934260354e-09
-3.451995449e-10
2.334821526e-09
-3.854223681e-10
2.79068615e-09
-4.242297923e-10
3.305785327e-09
-4.603278064e-10
3.884054429e-09
-4.922610094e-10
4.529431173e-09
-5.184133539e-10
5.245854903e-09
-5.370100494e-10
6.037267091e-09
-5.461200285e-10
6.90761283e-09
-5.436602881e-10
7.860843993e-09
-5.274022838e-10
8.900927009e-09
-4.949804272e-10
1.003187184e-08
-4.439055067e-10
1.125787021e-08
-3.71586222e-10
1.258401502e-08
-2.753839297e-10
1.402019531e-08
-1.527100594e-10
1.560233221e-08
1.75125027e-08
-1.363215396e-12
7.685434419e-12
-5.700358239e-12
3.423060864e-11
-1.323448418e-11
7.238421382e-11
-2.411636828e-11
1.231326315e-10
-3.841872138e-11
1.881571699e-10
-5.615604795e-11
2.700163868e-10
-7.730978968e-11
3.720513495e-10
-1.018413358e-10
4.980754975e-10
-1.296803085e-10
6.520337939e-10
-1.606913242e-10
8.378057247e-10
-1.946368398e-10
1.059175865e-09
-2.31150175e-10
1.319880391e-09
-2.697207025e-10
1.62364973e-09
-3.096867606e-10
1.974226412e-09
-3.502321702e-10
2.375366936e-09
-3.903842496e-10
2.830838229e-09
-4.290128753e-10
3.344413952e-09
-4.648299113e-10
3.919871465e-09
-4.96389472e-10
4.560990734e-09
-5.220889856e-10
5.271554417e-09
-5.401706721e-10
6.055348778e-09
-5.487246816e-10
6.91616684e-09
-5.456928387e-10
7.85781215e-09
-5.288745655e-10
8.884108736e-09
-4.959352426e-10
9.998932518e-09
-4.444171071e-10
1.120635207e-08
-3.717632633e-10
1.251136117e-08
-2.753734646e-10
1.392380551e-08
-1.526872824e-10
1.547964602e-08
1.735981542e-08
-1.43415771e-12
9.119592135e-12
-5.959638583e-12
3.875608953e-11
-1.377314206e-11
8.01977173e-11
-2.50070376e-11
1.343665271e-10
-3.972368915e-11
2.028738214e-10
-5.79290461e-11
2.882217437e-10
-7.959055176e-11
3.937128552e-10
-1.046472636e-10
5.231322093e-10
-1.330012724e-10
6.803878027e-10
-1.644902096e-10
8.692946619e-10
-1.988537686e-10
1.093539424e-09
-2.357075268e-10
1.356734149e-09
-2.745277153e-10
1.662469918e-09
-3.146435754e-10
2.014342273e-09
-3.552335928e-10
2.415956953e-09
-3.953235089e-10
2.870928145e-09
-4.337851198e-10
3.382875563e-09
-4.693358986e-10
3.955422244e-09
-5.005393616e-10
4.592194197e-09
-5.25805645e-10
5.2968207e-09
-5.433937494e-10
6.072936882e-09
-5.514137357e-10
6.924186826e-09
-5.478310039e-10
7.854229418e-09
-5.304711578e-10
8.86674889e-09
-4.970273023e-10
9.965488663e-09
-4.450713334e-10
1.11543961e-08
-3.720752972e-10
1.243836514e-08
-2.75470606e-10
1.382720082e-08
-1.527201219e-10
1.535689554e-08
1.720709529e-08
-1.510187668e-12
1.062977981e-11
-6.236785855e-12
4.348268772e-11
-1.434627504e-11
8.830720649e-11
-2.594643774e-11
1.459666898e-10
-4.108376206e-11
2.180111457e-10
-5.975340434e-11
3.06891386e-10
-8.191062269e-11
4.158700736e-10
-1.074763383e-10
5.486979249e-10
-1.363292652e-10
7.092407297e-10
-1.682826355e-10
9.012480322e-10
-2.030544444e-10
1.128311233e-09
-2.402428011e-10
1.393922506e-09
-2.793107093e-10
1.701537826e-09
-3.195781338e-10
2.054609697e-09
-3.602180493e-10
2.456596869e-09
-4.002542725e-10
2.910964369e-09
-4.385602997e-10
3.421181591e-09
-4.738588784e-10
3.990720823e-09
-5.047221684e-10
4.623057487e-09
-5.295729256e-10
5.321671457e-09
-5.46685772e-10
6.090049728e-09
-5.541898107e-10
6.931690865e-09
-5.500722674e-10
7.850111875e-09
-5.321832468e-10
8.84885987e-09
-4.982417257e-10
9.931547142e-09
-4.458456625e-10
1.110200004e-08
-3.724945414e-10
1.236501402e-08
-2.756479089e-10
1.373035419e-08
-1.527910619e-10
1.523403869e-08
1.705430423e-08
-1.589345048e-12
1.221912486e-11
-6.525389458e-12
4.841873213e-11
-1.494250301e-11
9.672432005e-11
-2.69202121e-11
1.579443989e-10
-4.248505701e-11
2.335759907e-10
-6.161895313e-11
3.260252822e-10
-8.426518652e-11
4.38516307e-10
-1.103290621e-10
5.747618004e-10
-1.396690657e-10
7.385807333e-10
-1.720763879e-10
9.336553544e-10
-2.072486069e-10
1.163483452e-09
-2.447668598e-10
1.431440759e-09
-2.840810449e-10
1.740852011e-09
-3.24501816e-10
2.095030468e-09
-3.651964196e-10
2.497291472e-09
-4.051866047e-10
2.950954554e-09
-4.433471522e-10
3.459342138e-09
-4.784057232e-10
4.025779394e-09
-5.089429254e-10
4.653594689e-09
-5.33392904e-10
5.346121436e-09
-5.500453486e-10
6.106702173e-09
-5.570473243e-10
6.938692841e-09
-5.524068308e-10
7.845471382e-09
-5.339964264e-10
8.830449465e-09
-4.995593825e-10
9.897110098e-09
-4.467179786e-10
1.104915863e-08
-3.729969733e-10
1.229129301e-08
-2.758840065e-10
1.363324122e-08
-1.528882678e-10
1.511104295e-08
1.690141596e-08
-1.670868187e-12
1.388999305e-11
-6.822431986e-12
5.357029593e-11
-1.555578488e-11
1.054576729e-10
-2.791998993e-11
1.703086039e-10
-4.39188418e-11
2.495748425e-10
-6.351881068e-11
3.45625251e-10
-8.6650742e-11
4.616482383e-10
-1.132056921e-10
6.013167505e-10
-1.43024167e-10
7.683992082e-10
-1.758773595e-10
9.665085469e-10
-2.114437015e-10
1.199049794e-09
-2.492879861e-10
1.469285043e-09
-2.888472448e-10
1.78041127e-09
-3.294228431e-10
2.135606066e-09
-3.701762856e-10
2.538044915e-09
-4.101268209e-10
2.990905089e-09
-4.481505142e-10
3.497365831e-09
-4.829794614e-10
4.060608341e-09
-5.132019681e-10
4.683817196e-09
-5.372634011e-10
5.370182869e-09
-5.534672906e-10
6.122906062e-09
-5.599780762e-10
6.945203626e-09
-5.548228032e-10
7.840316109e-09
-5.358957135e-10
8.811522375e-09
-5.009622772e-10
9.862176662e-09
-4.476685321e-10
1.099586489e-08
-3.735634229e-10
1.22171879e-08
-2.761633115e-10
1.353584111e-08
-1.530043559e-10
1.4987884e-08
1.674841161e-08
-1.754504555e-12
1.56444976e-11
-7.126534071e-12
5.894232545e-11
-1.618294066e-11
1.145140795e-10
-2.894092922e-11
1.830665925e-10
-4.537965116e-11
2.660135645e-10
-6.544839596e-11
3.656939958e-10
-8.906481554e-11
4.852646579e-10
-1.16106339e-10
6.283582739e-10
-1.463970992e-10
7.986899684e-10
-1.796899369e-10
9.998013846e-10
-2.156453248e-10
1.235005182e-09
-2.538123806e-10
1.507452099e-09
-2.936155908e-10
1.82021448e-09
-3.343471234e-10
2.176337599e-09
-3.751626156e-10
2.578860407e-09
-4.15078953e-10
3.030821426e-09
-4.529729191e-10
3.535259797e-09
-4.875807015e-10
4.095216123e-09
-5.174979584e-10
4.713734453e-09
-5.411804036e-10
5.393865314e-09
-5.569452336e-10
6.138670892e-09
-5.629725784e-10
6.951230971e-09
-5.573083175e-10
7.834651848e-09
-5.378667689e-10
8.792080827e-09
-5.024348261e-10
9.826744719e-09
-4.486811014e-10
1.094211116e-08
-3.741790125e-10
1.214268581e-08
-2.764753593e-10
1.343813746e-08
-1.531340339e-10
1.486454267e-08
1.659527758e-08
-1.840194144e-12
1.748469175e-11
-7.437081809e-12
6.453921311e-11
-1.68222693e-11
1.23899267e-10
-2.998016854e-11
1.962244917e-10
-4.686402888e-11
2.828974248e-10
-6.740460664e-11
3.862345736e-10
-9.150558217e-11
5.093656334e-10
-1.190309855e-10
6.558836773e-10
-1.497896285e-10
8.294486114e-10
-1.8351732e-10
1.033529076e-09
-2.198576314e-10
1.271345493e-09
-2.583446606e-10
1.545939128e-09
-2.983907124e-10
1.860260532e-09
-3.392788957e-10
2.217225782e-09
-3.801590155e-10
2.619740527e-09
-4.200453481e-10
3.070707759e-09
-4.578152523e-10
3.573029702e-09
-4.922086998e-10
4.129609571e-09
-5.218281778e-10
4.743353931e-09
-5.451394201e-10
5.417176556e-09
-5.604721644e-10
6.154003637e-09
-5.660221301e-10
6.956780937e-09
-5.598523981e-10
7.828482116e-09
-5.398967609e-10
8.77212519e-09
-5.039631884e-10
9.790811146e-09
-4.497421393e-10
1.088789012e-08
-3.748323025e-10
1.206777597e-08
-2.768118342e-10
1.334011699e-08
-1.532737243e-10
1.474100456e-08
1.644200385e-08
-1.927940592e-12
1.941263234e-11
-7.753786e-12
7.036505851e-11
-1.747282018e-11
1.336183012e-10
-3.10359484e-11
2.097876199e-10
-4.836966694e-11
3.002311433e-10
-6.938523375e-11
4.072501404e-10
-9.397162591e-11
5.339520255e-10
-1.219794487e-10
6.838915001e-10
-1.532029106e-10
8.606720733e-10
-1.873617803e-10
1.067687946e-09
-2.240836393e-10
1.308067352e-09
-2.628882154e-10
1.584743705e-09
-3.031759877e-10
1.900548304e-09
-3.44221187e-10
2.258270982e-09
-3.851678204e-10
2.66068716e-09
-4.250273836e-10
3.110567322e-09
-4.626777143e-10
3.610680032e-09
-4.968622087e-10
4.163794065e-09
-5.261898435e-10
4.772681565e-09
-5.491356957e-10
5.440122409e-09
-5.640418346e-10
6.168909776e-09
-5.691182749e-10
6.961857377e-09
-5.624453468e-10
7.821809188e-09
-5.419753027e-10
8.751655146e-09
-5.0553646e-10
9.754372304e-09
-4.508413903e-10
1.083319505e-08
-3.755143787e-10
1.199244896e-08
-2.771669173e-10
1.324176953e-08
-1.534218517e-10
1.46172595e-08
1.6288582e-08
-2.017745469e-12
2.14303778e-11
-8.076470548e-12
7.642378359e-11
-1.813398128e-11
1.436758119e-10
-3.210707976e-11
2.237607184e-10
-4.989495189e-11
3.180190155e-10
-7.138862321e-11
4.287438117e-10
-9.646176185e-11
5.590251642e-10
-1.249514121e-10
7.123811503e-10
-1.566375878e-10
8.92358249e-10
-1.912248246e-10
1.102275183e-09
-2.283254859e-10
1.345168013e-09
-2.67445481e-10
1.6238637e-09
-3.079738348e-10
1.941076658e-09
-3.491760619e-10
2.299473209e-09
-3.901904361e-10
2.701701534e-09
-4.300256977e-10
3.150402584e-09
-4.675598066e-10
3.648214141e-09
-5.01539461e-10
4.19777372e-09
-5.305797751e-10
4.801721879e-09
-5.531647472e-10
5.462707381e-09
-5.676479137e-10
6.183392942e-09
-5.722536243e-10
6.966463088e-09
-5.650784178e-10
7.814633981e-09
-5.440928423e-10
8.73066957e-09
-5.071449822e-10
9.717424443e-09
-4.519699473e-10
1.077802001e-08
-3.762188917e-10
1.191669791e-08
-2.775366443e-10
1.314308728e-08
-1.535758933e-10
1.449329875e-08
1.613500611e-08
-2.1096045e-12
2.35399823e-11
-8.405006226e-12
8.271918531e-11
-1.880531179e-11
1.540761175e-10
-3.319269966e-11
2.381481063e-10
-5.143864649e-11
3.362649623e-10
-7.341344428e-11
4.507186095e-10
-9.897494338e-11
5.845866633e-10
-1.279464151e-10
7.41352622e-10
-1.600939519e-10
9.245057858e-10
-1.951074468e-10
1.137288677e-09
-2.32584657e-10
1.382645223e-09
-2.72018216e-10
1.663297259e-09
-3.127860145e-10
1.981844457e-09
-3.541450942e-10
2.340832288e-09
-3.952279801e-10
2.74278442e-09
-4.350405729e-10
3.190215177e-09
-4.724610447e-10
3.685634613e-09
-5.062388328e-10
4.231551508e-09
-5.349950814e-10
4.830478128e-09
-5.572222929e-10
5.484934592e-09
-5.712852591e-10
6.197455908e-09
-5.754218572e-10
6.970599686e-09
-5.677444699e-10
7.806956594e-09
-5.462417492e-10
8.709166849e-09
-5.087814629e-10
9.679964157e-09
-4.531212805e-10
1.072235983e-08
-3.769399248e-10
1.184051655e-08
-2.779174153e-10
1.304406477e-08
-1.537346101e-10
1.436911594e-08
1.59812715e-08
-2.203492066e-12
2.574347436e-11
-8.739242603e-12
8.925493584e-11
-1.948641354e-11
1.648232884e-10
-3.429208865e-11
2.529537814e-10
-5.299974488e-11
3.549726185e-10
-7.545858093e-11
4.731774456e-10
-1.015102109e-10
6.106382932e-10
-1.309639233e-10
7.708063344e-10
-1.635720387e-10
9.571139012e-10
-1.990102055e-10
1.172726844e-09
-2.368621452e-10
1.420497163e-09
-2.766076326e-10
1.703042746e-09
-3.176137747e-10
2.022850599e-09
-3.591292351e-10
2.382347749e-09
-4.002809398e-10
2.783936125e-09
-4.400719935e-10
3.23000623e-09
-4.773803853e-10
3.722943005e-09
-5.109586101e-10
4.265129733e-09
-5.394330389e-10
4.858952557e-09
-5.61304562e-10
5.506806115e-09
-5.74948818e-10
6.211100164e-09
-5.786171495e-10
6.974268017e-09
-5.704373305e-10
7.798776775e-09
-5.484152782e-10
8.687144797e-09
-5.104394595e-10
9.641988338e-09
-4.542898641e-10
1.066621023e-08
-3.776738461e-10
1.176390053e-08
-2.783069285e-10
1.294469785e-08
-1.538979094e-10
1.424470692e-08
1.582737359e-08
-2.299362979e-12
2.804283734e-11
-9.079010785e-12
9.603458364e-11
-2.017693348e-11
1.759212111e-10
-3.540463233e-11
2.681814802e-10
-5.457739689e-11
3.741453831e-10
-7.752306717e-11
4.961231158e-10
-1.040666958e-10
6.371819219e-10
-1.340033675e-10
8.007430061e-10
-1.670716764e-10
9.9018221e-10
-2.029333922e-10
1.20858856e-09
-2.411585793e-10
1.45872235e-09
-2.812145705e-10
1.743098737e-09
-3.224579263e-10
2.064093955e-09
-3.641292194e-10
2.424019042e-09
-4.053497862e-10
2.825156692e-09
-4.4511983e-10
3.269776274e-09
-4.823172222e-10
3.760140397e-09
-5.15697031e-10
4.298509541e-09
-5.43891182e-10
4.887146708e-09
-5.654083774e-10
5.528323311e-09
-5.786348428e-10
6.22432663e-09
-5.81834725e-10
6.9774679e-09
-5.731512686e-10
7.790093318e-09
-5.506082698e-10
8.664601798e-09
-5.121136033e-10
9.603493672e-09
-4.554714677e-10
1.06095681e-08
-3.784173687e-10
1.168684643e-08
-2.787031849e-10
1.284498367e-08
-1.540641556e-10
1.412006789e-08
1.567330943e-08
-2.397162789e-12
3.044000012e-11
-9.424131328e-12
1.030615522e-10
-2.087649749e-11
1.873735773e-10
-3.652973896e-11
2.838347217e-10
-5.617082218e-11
3.937864663e-10
-7.960602535e-11
5.19558319e-10
-1.066435825e-10
6.642194791e-10
-1.370641541e-10
8.311635777e-10
-1.705926355e-10
1.023710691e-09
-2.068771052e-10
1.24487303e-09
-2.454743866e-10
1.497319632e-09
-2.858396358e-10
1.783463986e-09
-3.273191492e-10
2.105573468e-09
-3.691455441e-10
2.465845437e-09
-4.10434656e-10
2.866445804e-09
-4.501838289e-10
3.309525447e-09
-4.872708032e-10
3.797227371e-09
-5.204529679e-10
4.331691706e-09
-5.483673943e-10
4.915061134e-09
-5.695306839e-10
5.5494866e-09
-5.823394172e-10
6.237135363e-09
-5.85070537e-10
6.980199019e-09
-5.758823998e-10
7.780905181e-09
-5.528161962e-10
8.641535595e-09
-5.138003142e-10
9.56447779e-09
-4.566623451e-10
1.055243013e-08
-3.791680454e-10
1.160935214e-08
-2.79105163e-10
1.274492079e-08
-1.542335184e-10
1.399519625e-08
1.551907591e-08
-2.496825627e-12
3.293682575e-11
-9.774395664e-12
1.103391222e-10
-2.158473925e-11
1.991839209e-10
-3.766689962e-11
2.999168821e-10
-5.777935252e-11
4.138989192e-10
-8.170670768e-11
5.434856742e-10
-1.092401396e-10
6.91752911e-10
-1.401457367e-10
8.620691748e-10
-1.74134632e-10
1.057699587e-09
-2.108414145e-10
1.281579812e-09
-2.498098534e-10
1.536288071e-09
-2.904833066e-10
1.82413744e-09
-3.321980448e-10
2.147288206e-09
-3.741787355e-10
2.507826127e-09
-4.15535868e-10
2.907802936e-09
-4.552639281e-10
3.349253507e-09
-4.922403305e-10
3.834203773e-09
-5.252250435e-10
4.364676419e-09
-5.528599385e-10
4.942696029e-09
-5.736693434e-10
5.570296005e-09
-5.860598436e-10
6.249525863e-09
-5.883211482e-10
6.982460324e-09
-5.786267638e-10
7.771210797e-09
-5.55035477e-10
8.617944308e-09
-5.154959259e-10
9.524938239e-09
-4.578602025e-10
1.04947944e-08
-3.799239679e-10
1.15314159e-08
-2.795114254e-10
1.264450824e-08
-1.544050862e-10
1.387008991e-08
1.536467083e-08
-2.598275013e-12
3.553510075e-11
-1.012960353e-11
1.178704507e-10
-2.23013129e-11
2.113556302e-10
-3.881559434e-11
3.164311635e-10
-5.94023621e-11
4.344856869e-10
-8.382444019e-11
5.679077522e-10
-1.118557662e-10
7.19784237e-10
-1.432476393e-10
8.934610479e-10
-1.776974375e-10
1.092149385e-09
-2.148263282e-10
1.318708703e-09
-2.541652854e-10
1.575627028e-09
-2.95146069e-10
1.865118223e-09
-3.370950214e-10
2.189237159e-09
-3.792292141e-10
2.54996032e-09
-4.206537334e-10
2.949227455e-09
-4.603601558e-10
3.388959929e-09
-4.972257e-10
3.871069318e-09
-5.30012437e-10
4.397463156e-09
-5.573674651e-10
4.970051057e-09
-5.778223419e-10
5.590750882e-09
-5.897937851e-10
6.261497306e-09
-5.915841867e-10
6.984250726e-09
-5.813817919e-10
7.761008402e-09
-5.572633389e-10
8.593825855e-09
-5.171978539e-10
9.484872754e-09
-4.59062642e-10
1.043665919e-08
-3.806838253e-10
1.145303708e-08
-2.799211803e-10
1.25437456e-08
-1.545789948e-10
1.374474772e-08
1.521009183e-08
-2.701438013e-12
3.823653876e-11
-1.048954704e-11
1.256585597e-10
-2.302586864e-11
2.238919518e-10
-3.997539517e-11
3.3338069e-10
-6.103933895e-11
4.555496307e-10
-8.5958669e-11
5.928270823e-10
-1.144899524e-10
7.483155204e-10
-1.463695324e-10
9.253406279e-10
-1.812809153e-10
1.127060768e-09
-2.18831977e-10
1.356259765e-09
-2.585410405e-10
1.615336091e-09
-2.998284082e-10
1.906405591e-09
-3.420108001e-10
2.231419551e-09
-3.842976293e-10
2.592247149e-09
-4.257886854e-10
2.990718512e-09
-4.654727903e-10
3.428644034e-09
-5.022267165e-10
3.907823244e-09
-5.34814964e-10
4.430051404e-09
-5.61889122e-10
4.997125215e-09
-5.819883889e-10
5.610850149e-09
-5.93539576e-10
6.273048494e-09
-5.948572142e-10
6.985568364e-09
-5.841450143e-10
7.750296202e-09
-5.594973582e-10
8.569178199e-09
-5.189045163e-10
9.444279912e-09
-4.602681062e-10
1.037802278e-08
-3.814462329e-10
1.137421521e-08
-2.803342489e-10
1.244263361e-08
-1.547550496e-10
1.361916852e-08
1.505533678e-08
-2.806239437e-12
4.10427782e-11
-1.08540196e-11
1.337063399e-10
-2.375811096e-11
2.367960432e-10
-4.114589557e-11
3.507684746e-10
-6.268985229e-11
4.770935874e-10
-8.810899527e-11
6.182462253e-10
-1.171423518e-10
7.773488769e-10
-1.495112117e-10
9.577094878e-10
-1.848851169e-10
1.162434673e-09
-2.228586499e-10
1.394233298e-09
-2.629376364e-10
1.655415078e-09
-3.04531115e-10
1.947999069e-09
-3.469461934e-10
2.273834629e-09
-3.893848434e-10
2.634685799e-09
-4.309416273e-10
3.032275295e-09
-4.706024458e-10
3.468304853e-09
-5.07243853e-10
3.944464651e-09
-5.396324059e-10
4.462439957e-09
-5.664245722e-10
5.023917382e-09
-5.861669056e-10
5.630592482e-09
-5.972959716e-10
6.284177559e-09
-5.981391615e-10
6.986411554e-09
-5.869151874e-10
7.739072228e-09
-5.61736242e-10
8.543999253e-09
-5.206138394e-10
9.403157509e-09
-4.614758079e-10
1.031888475e-08
-3.822108059e-10
1.129495021e-08
-2.807498723e-10
1.234117268e-08
-1.549327027e-10
1.349335135e-08
1.490040408e-08
-2.912604344e-12
4.395538254e-11
-1.12228496e-11
1.420165851e-10
-2.449775315e-11
2.500709467e-10
-4.232679912e-11
3.685975206e-10
-6.435358813e-11
4.991203764e-10
-9.027512483e-11
6.44167762e-10
-1.198128221e-10
8.068865742e-10
-1.526726918e-10
9.905693575e-10
-1.885102691e-10
1.19827225e-09
-2.269068469e-10
1.432629875e-09
-2.673558297e-10
1.69586406e-09
-3.09255073e-10
1.989898313e-09
-3.519023584e-10
2.316481914e-09
-3.944920213e-10
2.677275462e-09
-4.361136037e-10
3.073896878e-09
-4.757501672e-10
3.507941416e-09
-5.122778449e-10
3.980992329e-09
-5.444652947e-10
4.494627406e-09
-5.7097402e-10
5.050426107e-09
-5.90357559e-10
5.649976021e-09
-6.010626907e-10
6.294882691e-09
-6.014291496e-10
6.986778013e-09
-5.896911192e-10
7.727334197e-09
-5.639790196e-10
8.518287154e-09
-5.223256052e-10
9.361504095e-09
-4.626846272e-10
1.025924377e-08
-3.829770131e-10
1.121524259e-08
-2.811679656e-10
1.223936363e-08
-1.551122986e-10
1.336729569e-08
1.474529178e-08
-3.020465651e-12
4.697584819e-11
-1.159586244e-11
1.505919819e-10
-2.524458505e-11
2.637196693e-10
-4.351785555e-11
3.868707911e-10
-6.60303526e-11
5.216328735e-10
-9.245698142e-11
6.705943908e-10
-1.225014062e-10
8.369309989e-10
-1.558542338e-10
1.023922185e-09
-1.921569022e-10
1.234574919e-09
-2.309773787e-10
1.471450352e-09
-2.71796723e-10
1.736683405e-09
-3.140017549e-10
2.032103345e-09
-3.568807222e-10
2.359360882e-09
-3.996208904e-10
2.72001563e-09
-4.413063823e-10
3.11558237e-09
-4.80917528e-10
3.547552562e-09
-5.173300882e-10
4.017404889e-09
-5.493150977e-10
4.526612416e-09
-5.755383361e-10
5.076649345e-09
-5.945611188e-10
5.668998804e-09
-6.048398947e-10
6.305161467e-09
-6.047273381e-10
6.986665456e-09
-5.924728195e-10
7.715079679e-09
-5.662249508e-10
8.492039285e-09
-5.240390254e-10
9.31931817e-09
-4.638945761e-10
1.019909932e-08
-3.837446764e-10
1.113509269e-08
-2.815883406e-10
1.21372073e-08
-1.552938224e-10
1.324100117e-08
1.458999796e-08
-3.129769451e-12
5.010561764e-11
-1.197293711e-11
1.594351496e-10
-2.599845255e-11
2.777451848e-10
-4.471896451e-11
4.05591303e-10
-6.772010856e-11
5.446340176e-10
-9.465468293e-11
6.975289652e-10
-1.252084054e-10
8.674847214e-10
-1.590564238e-10
1.057770204e-09
-1.958258826e-10
1.271344377e-09
-2.350714518e-10
1.510695921e-09
-2.762618437e-10
1.777873797e-09
-3.187728301e-10
2.074614331e-09
-3.618834568e-10
2.402471508e-09
-4.04773483e-10
2.762905657e-09
-4.465220712e-10
3.157330958e-09
-4.861067381e-10
3.587137229e-09
-5.224028066e-10
4.053700957e-09
-5.541833412e-10
4.55839295e-09
-5.801190992e-10
5.102585103e-09
-5.987786384e-10
5.687658343e-09
-6.086285732e-10
6.315011402e-09
-6.080340957e-10
6.986070979e-09
-5.952603119e-10
7.702305895e-09
-5.684747039e-10
8.465253677e-09
-5.257541407e-10
9.276597606e-09
-4.651055947e-10
1.013845078e-08
-3.845137626e-10
1.105450086e-08
-2.820115563e-10
1.203470509e-08
-1.554770022e-10
1.311446662e-08
1.443452096e-08
-3.240456992e-12
5.334607463e-11
-1.235398011e-11
1.685486727e-10
-2.675925475e-11
2.921504594e-10
-4.593010074e-11
4.24762149e-10
-6.942302454e-11
5.681269414e-10
-9.686855317e-11
7.249744938e-10
-1.279344468e-10
8.98550615e-10
-1.622801595e-10
1.092115916e-09
-1.995184768e-10
1.308582695e-09
-2.39190711e-10
1.550368155e-09
-2.807531969e-10
1.819436283e-09
-3.235707657e-10
2.1174319e-09
-3.669131264e-10
2.445813869e-09
-4.099528106e-10
2.805945341e-09
-4.517637009e-10
3.199141848e-09
-4.91320599e-10
3.626694127e-09
-5.274985523e-10
4.089878911e-09
-5.590726822e-10
4.58996708e-09
-5.847186404e-10
5.128231061e-09
-6.030121759e-10
5.705951879e-09
-6.124301841e-10
6.32442941e-09
-6.11350834e-10
6.984991628e-09
-5.980549143e-10
7.689009975e-09
-5.707287206e-10
8.437927483e-09
-5.27471768e-10
9.233340654e-09
-4.663181831e-10
1.007729719e-08
-3.852850202e-10
1.09734677e-08
-2.824369145e-10
1.193185698e-08
-1.556617732e-10
1.298769147e-08
1.427885918e-08
-3.352500237e-12
5.669857486e-11
-1.273892691e-11
1.779350994e-10
-2.752701863e-11
3.069385511e-10
-4.715143113e-11
4.443865615e-10
-7.11394257e-11
5.921149359e-10
-9.909925155e-11
7.529343196e-10
-1.306804954e-10
9.301318589e-10
-1.655267823e-10
1.126962203e-09
-2.032364801e-10
1.346292392e-09
-2.433373644e-10
1.59046904e-09
-2.852734438e-10
1.861372362e-09
-3.283985266e-10
2.160556983e-09
-3.719730972e-10
2.48938844e-09
-4.15162331e-10
2.849134575e-09
-4.570350666e-10
3.241014584e-09
-4.965631562e-10
3.666222216e-09
-5.326212876e-10
4.125937042e-09
-5.639869641e-10
4.621332757e-09
-5.893402556e-10
5.153584353e-09
-6.072647828e-10
5.723876406e-09
-6.162474336e-10
6.333412061e-09
-6.146795957e-10
6.983423791e-09
-6.008579373e-10
7.675188317e-09
-5.729881265e-10
8.410057672e-09
-5.291927053e-10
9.189545233e-09
-4.675327639e-10
1.001563725e-08
-3.860583246e-10
1.089199326e-08
-2.828654958e-10
1.182866416e-08
-1.558490588e-10
1.286067504e-08
1.412301012e-08
-3.465876914e-12
6.016445178e-11
-1.312778894e-11
1.875970114e-10
-2.830183006e-11
3.221125922e-10
-4.83832432e-11
4.644679747e-10
-7.286993797e-11
6.166016307e-10
-1.013477086e-10
7.814120903e-10
-1.334478881e-10
9.622320384e-10
-1.687981642e-10
1.162312479e-09
-2.069822208e-10
1.384476449e-09
-2.475143085e-10
1.631001127e-09
-2.898259575e-10
1.903684011e-09
-3.332600885e-10
2.203991114e-09
-3.77067705e-10
2.533196056e-09
-4.20406721e-10
2.892473591e-09
-4.623408559e-10
3.282948719e-09
-5.018391028e-10
3.705720463e-09
-5.377757752e-10
4.161873714e-09
-5.689304517e-10
4.652487433e-09
-5.939882131e-10
5.178642114e-09
-6.115401704e-10
5.741428363e-09
-6.200837061e-10
6.341955596e-09
-6.180231999e-10
6.981363284e-09
-6.036720262e-10
7.660837143e-09
-5.752550712e-10
8.381640717e-09
-5.309181136e-10
9.145208275e-09
-4.687508772e-10
9.953470015e-09
-3.868348879e-10
1.081007727e-08
-2.832975849e-10
1.172512685e-08
-1.560381603e-10
1.273341561e-08
1.396697196e-08
-3.580576505e-12
6.374502828e-11
-1.352062739e-11
1.975370623e-10
-2.90839483e-11
3.376759131e-10
-4.962607437e-11
4.850101007e-10
-7.461541613e-11
6.415909725e-10
-1.036152602e-10
8.104119343e-10
-1.362385301e-10
9.948553083e-10
-1.720967097e-10
1.198170659e-09
-2.107587743e-10
1.423138514e-09
-2.517252371e-10
1.67196759e-09
-2.944151839e-10
1.946373958e-09
-3.38160253e-10
2.247736183e-09
-3.8220232e-10
2.577238123e-09
-4.256917646e-10
2.935963035e-09
-4.676871486e-10
3.324944103e-09
-5.071545505e-10
3.745187865e-09
-5.429679649e-10
4.197687129e-09
-5.739090006e-10
4.683428469e-09
-5.986679232e-10
5.203401037e-09
-6.158433018e-10
5.758603742e-09
-6.239432376e-10
6.350055532e-09
-6.213856917e-10
6.978805738e-09
-6.065004118e-10
7.645951863e-09
-5.775321065e-10
8.352672412e-09
-5.326505725e-10
9.100326741e-09
-4.699736711e-10
9.890793114e-09
-3.876156049e-10
1.072771921e-08
-2.837334939e-10
1.162124474e-08
-1.562294065e-10
1.260591152e-08
1.381074256e-08
-3.696615164e-12
6.744164344e-11
-1.391756396e-11
2.077580111e-10
-2.987371268e-11
3.536320619e-10
-5.088063067e-11
5.060170187e-10
-7.637710283e-11
6.670874446e-10
-1.059037121e-10
8.399385435e-10
-1.390548083e-10
1.028006405e-09
-1.754255832e-10
1.234541434e-09
-2.145699945e-10
1.462282925e-09
-2.55974762e-10