/*--------------------------------*- C++ -*----------------------------------*\
  =========                 |
  \\      /  F ield         | OpenFOAM: The Open Source CFD Toolbox
   \\    /   O peration     | Website:  https://openfoam.org
    \\  /    A nd           | Version:  8
     \\/     M anipulation  |
\*---------------------------------------------------------------------------*/
FoamFile
{
    version     2.0;
    format      ascii;
    class       volScalarField;
    location    "902";
    object      T;
}
// * * * * * * * * * * * * * * * * * * * * * * * * * * * * * * * * * * * * * //

dimensions      [0 0 0 1 0 0 0];

internalField   nonuniform List<scalar> 
6300
(
481.3949476
473.2355928
469.3022965
467.3243333
466.3956232
466.0199962
465.8950751
465.8617911
465.8548441
465.853796
465.8537659
465.8538583
465.8539476
465.8540219
465.8540825
465.8541316
465.854171
465.8542025
465.8542273
465.8542465
465.8542611
465.8542718
465.8542791
465.8542835
465.8542856
465.854288
465.854305
465.8544802
465.8587184
466.1225425
487.0962004
478.7233222
472.9048755
469.2199572
467.2128807
466.3083555
465.9791438
465.8838146
465.8621038
465.8583292
465.857936
465.8580223
465.8581423
465.8582448
465.858328
465.8583943
465.8584464
465.8584866
465.8585168
465.8585388
465.8585538
465.858563
465.8585672
465.8585674
465.8585651
465.8585662
465.8586099
465.8591526
465.8714289
466.3968738
488.7629608
481.1664631
475.0275754
470.6265159
467.9510964
466.6168353
466.0827377
465.9134345
465.8713157
465.8632293
465.8621592
465.8621919
465.8623366
465.8624664
465.8625719
465.8626556
465.8627207
465.8627703
465.8628067
465.8628322
465.8628486
465.8628573
465.8628596
465.8628568
465.8628514
465.8628547
465.8629471
465.8641345
465.8881142
466.6718295
489.3984003
482.3942789
476.3149091
471.6306324
468.5620659
466.9091093
466.193593
465.9483049
465.8823147
465.86855
465.8664681
465.8663871
465.8665459
465.8666997
465.8668253
465.8669245
465.8670012
465.8670588
465.8671005
465.8671289
465.8671461
465.8671539
465.867154
465.8671481
465.8671402
465.8671491
465.867323
465.8695128
465.9087668
466.9473813
489.7031292
483.0835514
477.1323251
472.3471357
469.0502083
467.1695677
466.3031698
465.9860302
465.8947317
465.8742778
465.8708705
465.8706097
465.8707707
465.8709448
465.871088
465.8712008
465.8712873
465.8713517
465.8713976
465.8714278
465.8714451
465.8714514
465.8714489
465.8714398
465.8714299
465.87145
465.8717522
465.8753818
465.9334067
467.2235092
489.8741389
483.5050203
477.6742024
472.8641512
469.4348259
467.3939778
466.406339
466.0246093
465.908134
465.8803658
465.8753675
465.874861
465.875011
465.8752016
465.8753601
465.8754844
465.8755792
465.8756489
465.8756977
465.8757288
465.8757453
465.8757497
465.8757441
465.8757317
465.875721
465.8757603
465.8762542
465.8818373
465.9620543
467.5001976
489.9799428
483.7788104
478.0460484
473.2421956
469.7364922
467.5836074
466.5004756
466.0625565
465.9221035
465.8867488
465.8799557
465.8791418
465.8792669
465.8794701
465.8796416
465.8797755
465.8798768
465.8799504
465.8800008
465.8800319
465.8800469
465.8800486
465.8800396
465.8800239
465.880014
465.880084
465.8808514
465.8889752
465.9947299
467.7774325
490.0493649
483.9640014
478.3077519
473.5218638
469.9729459
467.7420025
466.5845931
466.0988689
465.9362782
465.8933539
465.8846277
465.8834522
465.8835386
465.8837503
465.8839324
465.884074
465.8841801
465.8842562
465.8843071
465.8843371
465.8843497
465.8843481
465.8843354
465.8843166
465.8843099
465.8844261
465.8855692
465.896892
466.0314541
468.0552005
490.0964738
484.0923676
478.4949679
473.7304821
470.1583543
467.873343
466.6586851
466.1329342
465.9503678
465.9001092
465.889374
465.8877919
465.8878263
465.8880422
465.8882326
465.88838
465.8884893
465.8885664
465.8886166
465.8886444
465.8886538
465.8886483
465.8886315
465.88861
465.8886098
465.8887925
465.8904361
465.9056846
466.0722476
468.3334889
490.1289342
484.1823197
478.6299092
473.8867182
470.3036911
467.9816838
466.7232812
466.1644307
465.9641539
465.9069492
465.8941834
465.8921603
465.8921301
465.892346
465.8925423
465.8926937
465.8928044
465.8928811
465.8929293
465.8929539
465.8929593
465.8929492
465.892928
465.8929044
465.8929152
465.8931908
465.8954838
465.9154504
466.1171312
468.6122848
490.1512772
484.2451973
478.7269973
474.0035749
470.4173714
468.0706533
466.7791693
466.1932405
465.9774817
465.9138171
465.8990448
465.8965564
465.8964503
465.896662
465.8968617
465.897015
465.8971256
465.8972003
465.8972452
465.8972657
465.8972661
465.8972509
465.897225
465.8972
465.8972281
465.8976295
465.9007469
465.9262874
466.1661256
468.8915753
490.166354
484.2883446
478.7959453
474.0902988
470.5058487
468.1433731
466.8272304
466.2193817
465.9902496
465.9206664
465.903947
465.900979
465.9007871
465.9009902
465.9011909
465.9013442
465.9014529
465.9015242
465.9015646
465.9015796
465.9015743
465.9015532
465.9015224
465.9014974
465.9015506
465.9021188
465.9062632
465.9382938
466.2192513
469.1713472
490.1760504
484.3167224
478.8435099
474.1536033
470.5740992
468.2024753
466.8683461
466.2429583
466.0023986
465.9274602
465.9088803
465.9054267
465.9051406
465.9053311
465.9055302
465.9056813
465.9057864
465.9058527
465.9058872
465.9058958
465.9058838
465.9058562
465.9058203
465.9057972
465.9058857
465.9066705
465.9120735
465.9515684
466.276529
469.4515869
490.1816653
484.3338022
478.8745286
474.1984591
470.6259918
468.2501587
466.9033503
466.2641251
466.0139016
465.9341709
465.9138358
465.9098984
465.9095111
465.9096847
465.9098797
465.9100266
465.9101262
465.910186
465.9102133
465.9102142
465.9101945
465.9101596
465.9101188
465.9100999
465.9102369
465.9112981
465.9182218
465.9662107
466.3379794
469.73228
490.1841248
484.3420896
478.8925538
474.2286161
470.6645629
468.2882528
466.9330064
466.283063
466.0247558
465.9407787
465.918806
465.9143927
465.9138986
465.9140514
465.9142395
465.9143802
465.9144724
465.9145241
465.9145427
465.9145347
465.9145062
465.9144636
465.9144179
465.9144067
465.9146083
465.9160171
465.9247551
465.9823203
466.4036228
470.0134119
490.1841093
484.3434415
478.9002538
474.2469519
470.69222
468.3182802
466.9580007
466.2999638
466.0349754
465.9472708
465.9237848
465.9189084
465.9183033
465.9184315
465.91861
465.9187421
465.9188251
465.9188669
465.9188753
465.9188572
465.918819
465.9187678
465.9187178
465.9187186
465.919005
465.9208446
465.9317236
465.9999978
466.4734799
470.2949672
490.1821313
484.3392664
478.8996738
474.2557101
470.7108911
468.3415106
466.9789421
466.3150189
466.0445863
465.9536396
465.9287673
465.9234446
465.9227253
465.9228251
465.9229912
465.9231125
465.9231842
465.9232144
465.9232112
465.9231816
465.9231325
465.9230722
465.9230187
465.9230372
465.9234329
465.9258002
465.9391807
466.0193438
466.5475711
470.5769295
490.1785857
484.3306555
478.89241
474.2566651
470.7221349
468.3590058
466.9963675
466.3284137
466.0536224
465.9598825
465.9337499
465.9280004
465.9271647
465.9272326
465.9273834
465.9274915
465.9275499
465.9275667
465.9275501
465.9275076
465.9274467
465.9273768
465.9273208
465.9273643
465.9278989
465.9309054
465.9471828
466.0404598
466.6259169
470.8592819
490.173783
484.318469
478.8797279
474.2512391
470.7272236
468.3716577
467.0107482
466.3403233
466.0621222
465.966
465.93873
465.932575
465.9316218
465.9316542
465.9317867
465.9318791
465.9319221
465.9319235
465.9318919
465.9318352
465.9317612
465.9316813
465.9316247
465.9317022
465.932411
465.9361843
465.9557895
466.0634477
466.7085376
471.1420068
490.1679716
484.3033967
478.8626457
474.2405852
470.727204
468.3802182
467.0224969
466.350911
466.0701266
465.9719956
465.9437059
465.937168
465.9360966
465.93609
465.9362014
465.9362755
465.9363008
465.9362849
465.9362366
465.936164
465.9360759
465.9359858
465.935931
465.9360538
465.9369785
465.9416631
465.9650635
466.0884099
466.7954534
471.4250854
490.1613531
484.285999
478.8419928
474.2256483
470.7229447
468.3853243
467.0319745
466.3603272
466.0776772
465.9778747
465.948677
465.941779
465.9405893
465.9405404
465.9406274
465.9406807
465.9406859
465.9406506
465.9405837
465.9404939
465.9403905
465.9402902
465.9402404
465.9404223
465.941612
465.9473709
465.9750708
466.1154493
466.8866845
471.7084982
490.1540938
484.2667374
478.8184523
474.2072101
470.7151712
468.3875174
467.0394968
466.3687093
466.0848155
465.9836441
465.9536431
465.9464078
465.9451001
465.9450055
465.9450651
465.9450947
465.9450775
465.9450206
465.9449333
465.9448245
465.9447048
465.9445945
465.944554
465.9448118
465.9463235
465.9533391
465.9858804
466.1446694
466.982251
471.9922248
490.1463319
484.2459955
478.7925925
474.1859225
470.7044933
468.3872595
467.04534
466.3761825
466.0915817
465.9893118
465.9586046
465.9510543
465.9496291
465.9494856
465.9495144
465.9495175
465.9494753
465.9493946
465.9492849
465.9491555
465.9490187
465.9488991
465.9488732
465.9492271
465.9511267
465.9596022
465.9975645
466.1761744
467.0821726
472.2762436
490.1381839
484.2240957
478.7648897
474.1623332
470.6914266
468.3849466
467.0497456
466.3828599
466.0980141
465.9948864
465.9635624
465.9557187
465.9541765
465.9539808
465.9539754
465.9539491
465.9538793
465.9537725
465.9536383
465.9534868
465.9533318
465.953204
465.9531995
465.9536735
465.956037
465.9661973
466.0101986
466.2100687
467.1864691
472.560532
490.1297486
484.2013105
478.7357463
474.1369048
470.6764092
468.3809185
467.0529253
466.3888436
466.1041494
466.0003766
465.968518
465.960401
465.9587426
465.9584913
465.9584483
465.9583895
465.9582893
465.9581539
465.9579932
465.9578179
465.9576441
465.9575097
465.9575351
465.9581577
465.9610714
465.9731647
466.0238612
466.2464577
467.29516
472.8450666
490.1211104
484.177872
478.7055038
474.1100301
470.6598144
468.3754681
467.0550646
466.3942256
466.1100217
466.0057917
465.9734727
465.9651017
465.9633275
465.9630172
465.9629331
465.9628386
465.9627051
465.9625387
465.9623492
465.9621485
465.9619553
465.9618167
465.9618825
465.962687
465.9662492
465.9805475
466.0386341
466.2854469
467.4082646
473.1298225
490.1123417
484.1539785
478.6744535
474.082044
470.6419615
468.368848
467.0563258
466.3990885
466.115663
466.0111404
465.9784285
465.969821
465.9679314
465.9675588
465.9674298
465.9672962
465.9671266
465.9669265
465.9667061
465.9664782
465.9662655
465.9661259
465.9662446
465.96727
465.9715915
465.9883925
466.0546025
466.3271428
467.5258017
473.414774
490.1035052
484.1298002
478.6428442
474.0532323
470.623124
468.3612763
467.0568513
466.4035062
466.121103
466.0164318
465.9833872
465.9745595
465.9725547
465.9721161
465.9719384
465.9717623
465.9715534
465.9713169
465.9710633
465.9708069
465.9705746
465.9704382
465.970625
465.9719166
465.9771218
465.9967493
466.0718545
466.3716524
467.6477905
473.6998938
490.0946547
484.105483
478.6108888
474.0238394
470.6035366
468.3529417
467.0567659
466.4075448
466.1263689
466.0216742
465.9883509
465.9793176
465.9771975
465.9766891
465.9764589
465.9762366
465.9759854
465.9757097
465.9754205
465.9751341
465.9748828
465.9747548
465.975028
465.9766377
465.9828659
466.0056712
466.0904817
466.4190833
467.7742492
473.9851536
490.0858368
484.0811519
478.5787692
473.9940737
470.5834
468.3440068
467.0561787
466.4112634
466.1314859
466.026876
465.9933218
465.9840958
465.98186
465.9812781
465.9809912
465.9807191
465.9804221
465.9801043
465.9797773
465.9794596
465.9791902
465.9790775
465.9794586
465.9814461
465.9888523
466.0152152
466.1105791
466.4695437
467.9051961
474.2705239
490.0770914
484.0569138
478.5466399
473.964113
470.5628859
468.334612
467.0551848
466.4147146
466.136477
466.0320449
465.998302
465.9888948
465.9865424
465.985883
465.9855351
465.9852093
465.9848632
465.9845003
465.9841332
465.9837831
465.9834973
465.9834081
465.9839225
465.9863559
465.9951121
466.0254416
466.1322449
466.5231426
468.0406489
474.5559737
490.0684529
484.032859
478.5146316
473.934107
470.5421402
468.3248775
467.0538672
466.4179447
466.1413629
466.0371884
466.0032936
465.9937152
465.991245
465.9905039
465.9900906
465.9897072
465.9893083
465.9888973
465.9884878
465.9881044
465.9878045
465.9877492
465.9884265
465.991383
466.0016791
466.0364148
466.1555807
466.5799897
468.1806253
474.8414706
490.05995
484.0090629
478.4828528
473.9041812
470.5212856
468.314906
467.0522976
466.4209951
466.1461627
466.0423133
466.0082986
465.9985575
465.995968
465.9951407
465.9946575
465.9942121
465.9937569
465.9932947
465.9928406
465.9924233
465.9921127
465.9921035
465.9929783
465.9965453
466.0085904
466.0482032
466.1806916
466.6401955
468.3251424
475.1269808
490.0516066
483.9855869
478.4513918
473.8744381
470.5004241
468.304784
467.0505375
466.4239016
466.1508934
466.0474262
466.0133191
466.0034224
466.0007113
465.9997933
465.9992355
465.9987239
465.9982084
465.997692
465.997191
465.9967398
465.9964228
465.9964747
465.9975868
466.0018627
466.0158863
466.0608791
466.2076862
466.7038713
468.474217
475.4124694
490.0434415
483.9624788
478.4203181
473.8449595
470.4796385
468.2945831
467.0486393
466.4266957
466.15557
466.0525329
466.0183571
466.0083103
466.0054752
466.0044616
466.0038242
466.0032419
466.0026624
466.0020884
466.0015387
466.0010539
466.000736
466.0008668
466.0022622
466.0073573
466.0236102
466.0745193
466.2366768
466.7711293
468.6278653
475.6978995
490.035469
483.9397734
478.3896819
473.8158063
470.4589929
468.2843613
467.0466465
466.4294041
466.1602062
466.0576388
466.0234143
466.0132218
466.0102597
466.0091455
466.0084233
466.0077657
466.007118
466.0064834
466.0058832
466.0053658
466.0050541
466.0052847
466.0070161
466.0130535
466.0318096
466.0892047
466.2677794
466.8420827
468.7861037
475.983233
490.0276982
483.9174916
478.359515
473.7870199
470.4385341
468.2741632
467.0445943
466.4320496
466.1648134
466.0627489
466.0284924
466.0181573
466.0150648
466.0138445
466.0130322
466.0122945
466.0115747
466.0108763
466.0102239
466.0096756
466.009379
466.0097341
466.0118616
466.0189787
466.0405354
466.1050213
466.3011139
466.9168458
468.9489476
476.2684301
490.0201331
483.8956406
478.3298295
473.7586209
470.4182909
468.2640203
467.0425098
466.4346504
466.1694017
466.0678673
466.0335928
466.0231172
466.0198903
466.0185583
466.0176504
466.0168277
466.0160315
466.0152662
466.0145606
466.0139839
466.0137132
466.0142216
466.0168136
466.0251627
466.049843
466.1220596
466.3368039
466.9955341
469.1164124
476.5534497
490.0127718
483.8742112
478.3006161
473.7306084
470.3982738
468.2539508
467.0404119
466.4372207
466.1739792
466.0729979
466.0387169
466.0281017
466.0247359
466.0232864
466.0222771
466.0213642
466.0204874
466.0196523
466.0188927
466.0182914
466.0180596
466.0187549
466.0218888
466.0316386
466.0597919
466.1404153
466.3749777
467.0782644
469.288513
476.8382488
490.0056056
483.8531771
478.2718424
473.7029575
470.3784733
468.2439592
467.0383113
466.4397706
466.1785521
466.0781434
466.0438655
466.0331107
466.0296013
466.0280281
466.0269114
466.0259031
466.0249415
466.0240338
466.0232199
466.022599
466.0224219
466.023343
466.0271061
466.038443
466.0704464
466.1601897
466.4157674
467.165155
469.4652642
477.1227828
489.9986181
483.8324909
478.2434484
473.6756167
470.3588583
468.2340344
467.0362093
466.4423051
466.1831248
466.0833061
466.0490394
466.0381442
466.0344858
466.0327824
466.0315522
466.0304432
466.0293925
466.0284096
466.027542
466.0269078
466.0268042
466.0279961
466.0324869
466.0456159
466.0818759
466.1814895
466.4593103
467.2563258
469.6466801
477.4070057
489.9917835
483.8120807
478.215342
473.6485026
470.3393723
468.2241486
467.0340975
466.4448247
466.1876993
466.0884873
466.0542389
466.0432018
466.0393887
466.0375482
466.0361981
466.0349829
466.0338391
466.0327788
466.0318587
466.0312194
466.0312119
466.0327259
466.0380549
466.0532015
466.094155
466.2044276
466.5057483
467.3518987
469.8327751
477.6908696
489.985064
483.7918436
478.1873916
473.6214942
470.3199291
468.2142539
467.031956
466.4473239
466.1922752
466.0936872
466.0594635
466.0482825
466.0443086
466.042324
466.0408475
466.0395207
466.0382796
466.0371402
466.0361699
466.0355359
466.0356508
466.037546
466.0438369
466.0612482
466.1073645
466.2291235
466.5552286
467.4519979
470.0235632
477.9743253
489.9784066
483.771638
478.1594162
473.5944234
470.3004059
468.2042787
467.0297518
466.4497907
466.1968492
466.0989048
466.0647125
466.0533851
466.0492439
466.047108
466.0454984
466.0440544
466.0427123
466.0414926
466.0404757
466.0398597
466.0401281
466.0424721
466.0498629
466.0698095
466.1215913
466.2557036
466.6079043
467.5567497
470.219058
478.2573216
489.9717388
483.7512721
478.1311714
473.5670626
470.2806348
468.1941223
467.0274354
466.4522054
466.2014144
466.1041375
466.0699841
466.0585078
466.0541926
466.0518978
466.0501483
466.0485818
466.0471352
466.0458348
466.0447763
466.0441939
466.0446522
466.0475218
466.0561668
466.0789442
466.1369292
466.284302
466.6639346
467.6662833
470.4192739
478.5398059
489.9649618
483.7304878
478.1023298
473.5391069
470.2603894
468.1836471
467.0249373
466.4545384
466.2059597
466.1093808
466.0752755
466.063648
466.0591518
466.0566905
466.0547943
466.0531
466.0515459
466.0501653
466.0490722
466.0485424
466.049233
466.0527156
466.0627865
466.088717
466.15348
466.3150608
466.7234853
467.780731
470.6242245
478.821724
489.9579407
483.708936
478.0724522
473.5101489
470.239367
468.1726677
467.0221626
466.4567481
466.2104688
466.1146278
466.0805825
466.0688018
466.0641177
466.0614822
466.0594327
466.0576057
466.0559418
466.0544828
466.0533641
466.05291
466.0538822
466.0580772
466.0697644
466.0991993
466.1713535
466.3481313
466.7867297
467.9002287
470.8339241
479.1030203
489.9504895
483.6861426
478.0409455
473.4796409
470.2171624
468.1609358
467.0189832
466.4587777
466.2149184
466.1198684
466.085899
466.0739643
466.0690856
466.0662683
466.064059
466.062095
466.0603197
466.0587856
466.0576532
466.0573023
466.0586136
466.0636333
466.0771488
466.11047
466.1906692
466.3836747
466.8538491
468.0249161
471.0483868
479.3836374
489.9423503
483.6614535
478.0069986
473.4468408
470.1932298
468.1481188
467.0152272
466.4605499
466.2192767
466.1250884
466.0912168
466.0791288
466.0740492
466.0710429
466.0686679
466.0665631
466.0646763
466.0630724
466.0619413
466.0617267
466.0634435
466.0694154
466.0849938
466.1226168
466.211557
466.4218634
466.9250341
468.1549375
471.2676273
479.6635168
489.9331481
483.633942
477.9694797
473.4107249
470.1668243
468.133766
467.0106633
466.4619608
466.2235
466.1302682
466.0965242
466.0842862
466.0790004
466.0757984
466.0732526
466.0710046
466.0690076
466.0673415
466.0662307
466.0661919
466.0683913
466.0754594
466.0933609
466.135737
466.2341587
466.462882
467.0004852
468.2904424
471.4916609
479.9425985
489.922353
483.6022861
477.9267849
473.3698592
470.1369167
468.1172633
467.0049789
466.4628707
466.2275297
466.1353812
466.1018057
466.0894244
466.0839285
466.0805256
466.077805
466.0754128
466.0733091
466.0715917
466.0705249
466.070709
466.07348
466.0818073
466.1023203
466.1499393
466.25863
466.5069299
467.0804152
468.4315871
471.720504
480.2208212
489.9090861
483.564444
477.8765269
473.3221656
470.102048
468.0977566
466.9977468
466.4630903
466.2312864
466.1403908
466.1070398
466.0945275
466.0888202
466.0852126
466.0823153
466.0797801
466.0775759
466.0758218
466.0748284
466.0752914
466.0787373
466.0885082
466.1119522
466.1653463
466.285143
466.5542233
467.1650515
468.5785363
471.9541742
480.4981227
489.8921665
483.5174401
477.8151871
473.2646164
470.0601341
468.0740524
466.9883816
466.4623642
466.2346632
466.1452482
466.1121981
466.0995744
466.093658
466.089845
466.0867716
466.0840973
466.0818024
466.080031
466.0791476
466.0799564
466.0841966
466.09562
466.1223497
466.1820971
466.3138902
466.6050009
467.2546417
468.7314692
472.1926971
480.7744399
489.8689297
483.4558176
477.7369123
473.1924646
470.0080498
468.0444259
466.9760626
466.460342
466.2375153
466.1498868
466.1172418
466.104537
466.0984194
466.0944041
466.0911589
466.0883537
466.0859823
466.0842191
466.0834909
466.0847252
466.0898987
466.1032121
466.1336217
466.2003521
466.34509
466.6595296
467.3494598
468.8905827
472.4361011
481.0497093
489.8366528
483.3720491
477.6330217
473.0986654
469.9412646
468.0064522
466.9596701
466.4565568
466.239652
466.1542196
466.1221211
466.1093803
466.1030769
466.0988682
466.0954604
466.0925372
466.0901096
466.0883876
466.0878706
466.0896259
466.0958948
466.1113691
466.1458995
466.2203019
466.378999
466.7181216
467.44983
469.0561251
472.6844592
481.3238689
489.784099
483.2472427
477.4861196
472.970787
469.8524474
467.9564573
466.9375914
466.4503588
466.2408118
466.1581264
466.1267664
466.1140552
466.1075929
466.1032074
466.0996532
466.0966319
466.094176
466.0925383
466.092302
466.0946934
466.1022484
466.1201951
466.1593418
466.2421737
466.4159196
466.7811408
467.5561235
469.2283672
472.9378219
481.596857
489.7049553
483.0596188
477.2723832
472.7914418
469.731636
467.8896618
466.9078184
466.4409681
466.2406891
466.161471
466.1311024
466.1185119
466.111931
466.1073953
466.1037193
466.1006279
466.0981812
466.0966831
466.0968141
466.0999815
466.1090489
466.1298298
466.1741567
466.2662627
466.4562464
466.8490752
467.6688801
469.4078074
473.1964991
481.8686254
489.5353362
482.7250049
476.9304425
472.5249773
469.5612478
467.7984919
466.8674045
466.4272896
466.2388553
466.1640526
466.13501
466.1226663
466.1160273
466.1113822
466.1076209
466.1044996
466.1021129
466.1008264
466.1014341
466.1055485
466.1163983
466.1404344
466.1905821
466.2928974
466.5003999
466.9224055
467.7885477
469.5946815
473.46035
482.1391174
489.2407676
482.1643049
476.3955304
472.1353633
469.3252722
467.6768857
466.8142983
466.4086629
466.2350902
466.1657911
466.1384599
466.126513
466.1198904
466.1151868
466.1113859
466.1082847
466.1060215
466.1050364
466.106256
466.1115271
466.1244853
466.1522778
466.2089973
466.3226044
466.5490926
467.0020673
467.9163142
469.790431
473.7308054
482.4083444
488.3770182
481.0409272
475.5144752
471.5652244
469.0056689
467.5202722
466.74763
466.384942
466.2292987
466.1665656
466.1413261
466.1299352
466.1234168
466.1187193
466.1149379
466.1119208
466.109861
466.1092872
466.1112792
466.1179467
466.1333723
466.16545
466.2294955
466.3554157
466.6021577
467.0874373
468.0506883
469.9922589
474.0043033
482.6762743
488.8883875
481.8051375
476.247487
472.1420797
469.3940491
467.7480845
466.8662399
466.4412417
466.2548794
466.1787627
466.1482361
466.1348629
466.1275683
466.122501
466.1184863
466.1152884
466.1130761
466.1123716
466.1142565
466.1208514
466.1362655
466.1684526
466.2328571
466.3596562
466.608368
467.0979253
468.0704286
470.0324161
474.0922848
482.88603
489.3132192
482.3332685
476.7547002
472.5671442
469.6992398
467.9376192
466.9700295
466.4927967
466.279286
466.1908024
466.1551977
466.139856
466.1317707
466.1263233
466.1220695
466.1186884
466.1163233
466.1154906
466.1172745
466.1238079
466.1392293
466.1715563
466.2363658
466.3641109
466.6148838
467.1088327
468.0907141
470.0732653
474.1811096
483.0857981
489.5780455
482.7410948
477.1372509
472.8890572
469.9382085
468.0923185
467.0583688
466.5385065
466.3018084
466.202335
466.1620538
466.1448383
466.135978
466.13015
466.1256556
466.1220906
466.1195738
466.1186165
466.1203071
466.1267933
466.1422468
466.1747544
466.2400348
466.3688294
466.6218226
467.1204022
468.1120179
470.1156824
474.272099
483.2779462
489.7497707
483.0654653
477.4477961
473.1500596
470.1350459
468.2231947
467.1354516
466.5797182
466.3228166
466.2134553
466.1688371
466.149832
466.1402104
466.1340008
466.1292626
466.1255116
466.1228425
466.1217621
466.1233644
466.1298132
466.1453165
466.1780346
466.2438339
466.373753
466.6290805
467.1324596
468.134061
470.1592336
474.3644656
483.4622501
489.8720593
483.3372854
477.7168925
473.3745072
470.3046304
468.3376109
467.204317
466.6174872
466.3426141
466.2242296
466.1755531
466.1548308
466.1444609
466.1378691
466.1328849
466.1289462
466.1261242
466.1249218
466.1264391
466.1328581
466.148425
466.1813769
466.2477332
466.3788366
466.63659
467.1449087
468.1567151
470.2037607
474.4579224
483.6391054
489.966342
483.5694999
477.9578496
473.5757392
470.4564344
468.4408328
467.2673884
466.6527617
466.3615206
466.2347506
466.1822237
466.1598376
466.1487281
466.1417529
466.1365206
466.1323925
466.1294168
466.1280929
466.1295278
466.1359225
466.1515632
466.1847664
466.2517078
466.3840404
466.6442894
467.1576564
468.1798479
470.2490797
474.5521231
483.8087521
490.043685
483.7720448
478.1784822
473.7616026
470.5964264
468.5363942
467.3263888
466.6862537
466.3797886
466.2450943
466.1888666
466.1648534
466.1530089
466.1456487
466.1401661
466.1358471
466.1327172
466.1312721
466.1326264
466.139001
466.1547232
466.188191
466.2557396
466.3893362
466.6521362
467.1706419
468.2033816
470.2950739
474.6468322
483.971508
490.109765
483.9513511
478.3830647
473.9366017
470.7283702
468.6266871
467.3825546
466.7185025
466.3976199
466.2553255
466.1954986
466.1698803
466.1573017
466.1495539
466.143819
466.1393079
466.136023
466.1344569
466.135732
466.1420897
466.1578996
466.1916425
466.2598156
466.3947046
466.6601099
467.1838794
468.2273027
470.3416327
474.7417927
484.1276844
490.1677856
484.112198
478.5743668
474.1034466
470.854676
468.7133313
467.436762
466.7499065
466.4151697
466.2654958
466.2021334
466.1749201
466.1616051
466.1534665
466.1474772
466.1427729
466.1393325
466.1376456
466.1388427
466.1451861
466.1610886
466.1951154
466.263928
466.4001547
466.6682233
467.1972973
468.2515294
470.3887211
474.8368825
484.2775983
490.2196894
484.2580781
478.7542651
474.2637789
470.976893
468.7974312
467.4896353
466.7807606
466.4325572
466.2756466
466.2087828
466.1799748
466.165918
466.157385
466.1511394
466.1462408
466.1426445
466.1408369
466.1419569
466.1482885
466.164288
466.1986104
466.2680886
466.4056695
466.6764335
467.2108748
468.2760395
470.4363064
474.9320011
484.4215581
490.2667589
484.3916357
478.9241594
474.41863
471.0960277
468.8797453
467.5416215
466.8112832
466.4498739
466.2858106
466.2154565
466.185046
466.1702399
466.1613082
466.1548043
466.1497105
466.145958
466.14403
466.1450739
466.1513963
466.1675012
466.2021287
466.2722821
466.4112373
466.6847302
467.2246001
468.300822
470.4843655
475.0270558
484.5598607
490.3098941
484.5148948
479.0851509
474.5686699
471.212737
468.9607985
467.5930432
466.8416377
466.4671903
466.2960144
466.2221627
466.1901354
466.1745705
466.1652353
466.158471
466.1531813
466.1492725
466.1472244
466.1481943
466.1545112
466.1707249
466.2056647
466.2765047
466.4168529
466.6931071
467.2384671
468.3258712
470.5328797
475.1219617
484.6927891
490.3497581
484.629433
479.2381466
474.7143559
471.3274516
469.0409559
467.6441353
466.8719473
466.4845617
466.3062793
466.2289084
466.1952447
466.1789094
466.1691656
466.1621389
466.1566521
466.1525874
466.1504205
466.1513176
466.1576314
466.1739579
466.2092165
466.2807538
466.4225131
466.7015604
467.2524724
468.3511846
470.5818314
475.216641
484.8206111
490.386856
484.7364962
479.3839146
474.8560171
471.4404546
469.1204717
467.6950699
466.9023055
466.5020315
466.3166229
466.2356998
466.2003742
466.183256
466.1730983
466.1658074
466.1601237
466.155903
466.1536178
466.1544435
466.1607562
466.1771993
466.2127826
466.2850275
466.4282155
466.7100879
467.2666145
468.3767606
470.6312036
475.3110231
484.9435801
490.4215823
484.837083
479.5231169
474.9939059
471.5519316
469.1995222
467.7459732
466.9327826
466.5196239
466.3270505
466.2425462
466.2055321
466.1876142
466.1770348
466.1694768
466.1635955
466.1592191
466.1568161
466.1575715
466.1638852
466.1804482
466.2163623
466.2893247
466.4339588
466.7186881
467.2808924
468.4025982
470.6809787
475.4050436
485.0619353
490.4542514
484.9320034
479.6563306
475.1282267
471.6620035
469.2782277
467.7969321
466.9633607
466.5373759
466.3376177
466.2494648
466.2107215
466.1919839
466.1809747
466.1731469
466.1670673
466.1625352
466.1600151
466.1607013
466.167018
466.1837043
466.2199548
466.2936444
466.4397417
466.72736
467.295306
468.4286963
470.7311387
475.498644
485.1759028
490.4851179
485.0219225
479.7840626
475.2591534
471.7707477
469.3566603
467.8478916
466.9941581
466.5553591
466.3483289
466.2564575
466.2159429
466.1963652
466.1849178
466.1768173
466.1705387
466.165851
466.1632144
466.1638326
466.1701542
466.1869671
466.2235595
466.2979858
466.4455635
466.7361031
467.3098552
468.4550535
470.7816649
475.5917714
485.2856958
490.5143905
485.1073923
479.90676
475.3868395
471.8782123
469.4348608
467.898879
467.0252583
466.573581
466.3591879
466.2635264
466.2211974
466.2007584
466.188864
466.1804879
466.1740095
466.1691665
466.166414
466.1669652
466.1732936
466.1902363
466.227176
466.3023485
466.4514236
466.7449167
467.3245398
468.4816682
470.8325385
475.6843781
485.391516
490.5422425
485.1888755
480.0248186
475.5114234
471.9844154
469.5127031
467.9501141
467.0566709
466.5920475
466.3701985
466.2706735
466.2264857
466.2051637
466.1928134
466.1841585
466.1774796
466.1724814
466.1696136
466.170099
466.176436
466.1935116
466.2308039
466.3067319
466.4573215
466.7538008
467.33936
468.5085386
470.8837402
475.776421
485.4935539
490.5688193
485.2667634
480.1385898
475.6330322
472.0893676
469.5902345
468.0016273
467.0884037
466.6107636
466.3813637
466.2779006
466.2318089
466.2095815
466.1967658
466.1878289
466.1809488
466.1757956
466.1728131
466.1732338
466.1795813
466.1967927
466.234443
466.3111357
466.4632567
466.762755
467.3543159
468.5356623
470.9352507
475.8678614
485.5919899
490.5942442
485.34139
480.2483866
475.751785
472.1930769
469.6675134
468.0534115
467.1204614
466.6297331
466.3926865
466.2852096
466.2371681
466.2140121
466.2007215
466.1914992
466.1844171
466.1791089
466.1760125
466.1763695
466.1827293
466.2000796
466.238093
466.3155597
466.4692291
466.7717792
467.3694076
468.563037
470.9870506
475.9586646
485.6869944
490.6186224
485.4130427
480.3544888
475.8677939
472.2955507
469.7445747
468.1054585
467.152846
466.6489592
466.4041695
466.2926025
466.2425642
466.2184562
466.2046805
466.1951693
466.1878843
466.1824214
466.1792116
466.1795061
466.1858799
466.2033721
466.2417536
466.3200035
466.4752385
466.7808735
467.3846352
468.59066
471.0391208
476.0487998
485.7787288
490.6420446
485.4819703
480.4571469
475.9811657
472.3967958
469.8214358
468.1577594
467.1855575