/*--------------------------------*- C++ -*----------------------------------*\
  =========                 |
  \\      /  F ield         | OpenFOAM: The Open Source CFD Toolbox
   \\    /   O peration     | Website:  https://openfoam.org
    \\  /    A nd           | Version:  8
     \\/     M anipulation  |
\*---------------------------------------------------------------------------*/
FoamFile
{
    version     2.0;
    format      ascii;
    class       volVectorField;
    location    "902";
    object      U;
}
// * * * * * * * * * * * * * * * * * * * * * * * * * * * * * * * * * * * * * //

dimensions      [0 1 -1 0 0 0 0];

internalField   nonuniform List<vector> 
6300
(
(-2.73518542e-05 -1.235964405e-05 5.658259663e-13)
(9.5785052e-05 -2.281186528e-05 3.280331844e-13)
(0.0003820161623 -2.587605903e-05 4.928114086e-13)
(0.0008455477857 -2.596594519e-05 5.401873144e-13)
(0.001514978803 -2.554203744e-05 4.87659352e-13)
(0.002430522154 -2.525978206e-05 3.542710759e-13)
(0.00364337208 -2.514022142e-05 4.09727362e-13)
(0.005213191395 -2.490529289e-05 4.776810325e-13)
(0.007205159406 -2.426870522e-05 7.581379038e-13)
(0.009687789107 -2.30438029e-05 9.955687911e-13)
(0.01273167268 -2.112775835e-05 6.922029649e-13)
(0.01640881371 -1.846717517e-05 7.689013807e-13)
(0.020792233 -1.503793976e-05 8.526342138e-13)
(0.02595569342 -1.083465433e-05 9.237031084e-13)
(0.03197348812 -5.864023031e-06 5.878561245e-13)
(0.0389202727 -1.405491674e-07 -8.469133315e-15)
(0.04687093154 6.315757301e-06 4.933723645e-13)
(0.05590047363 1.347946905e-05 1.224193712e-12)
(0.06608394966 2.131714839e-05 1.28877481e-12)
(0.0774963863 2.97808556e-05 1.348169136e-12)
(0.09021272661 3.879575948e-05 7.669225916e-13)
(0.1043077659 4.8237977e-05 -1.025345406e-13)
(0.1198560692 5.789664822e-05 9.663536997e-14)
(0.1369318802 6.741025723e-05 7.092185491e-13)
(0.1556091893 7.614567457e-05 1.448912859e-12)
(0.1759631201 8.29301307e-05 8.101625541e-13)
(0.1980797741 8.578591114e-05 7.936758525e-14)
(0.222115185 8.279917122e-05 -8.358024452e-14)
(0.2486242978 7.189012881e-05 6.207266237e-24)
(0.2804655535 5.268549609e-06 2.946337045e-28)
(6.649310181e-06 2.124791251e-06 1.212055538e-12)
(0.0001835996186 2.563216722e-07 1.33686117e-12)
(0.00052465157 2.022251809e-06 1.146645923e-12)
(0.001048780304 3.340289288e-06 1.112264123e-12)
(0.001786501362 3.880993299e-06 1.390379138e-12)
(0.002779504463 4.157942003e-06 1.668100865e-12)
(0.004079663842 4.850721945e-06 1.476626342e-12)
(0.005746339439 6.489089283e-06 1.116511103e-12)
(0.007843521609 9.24675118e-06 7.653340893e-13)
(0.01043789194 1.300619486e-05 1.445394043e-12)
(0.01359780522 1.753941439e-05 2.120923903e-12)
(0.01739278133 2.26215789e-05 1.557689955e-12)
(0.02189320142 2.806078188e-05 1.67911801e-12)
(0.02717008287 3.369506793e-05 1.80602361e-12)
(0.03329489808 3.938667935e-05 1.958653548e-12)
(0.04033942845 4.501918782e-05 1.784230267e-12)
(0.04837564893 5.049584384e-05 1.922194118e-12)
(0.05747563888 5.573744066e-05 2.412152901e-12)
(0.06771151404 6.067803696e-05 1.578340201e-12)
(0.07915537555 6.525728721e-05 4.684356818e-13)
(0.09187926722 6.9407244e-05 1.566710391e-12)
(0.1059551346 7.303156867e-05 2.367194085e-12)
(0.1214547803 7.597547401e-05 1.557103987e-12)
(0.1384498425 7.798247027e-05 2.919042162e-13)
(0.1570120115 7.859355581e-05 8.098996546e-13)
(0.1772147965 7.691480936e-05 2.193760561e-12)
(0.1991443045 7.188573523e-05 1.883947713e-12)
(0.2229592483 6.499581627e-05 -1.612817481e-13)
(0.2492168008 5.85761281e-05 -1.836473342e-13)
(0.2807675852 1.061138479e-05 0)
(2.913450518e-05 7.827742326e-06 2.321934772e-12)
(0.0002450895165 1.780081763e-05 2.619285818e-12)
(0.0006261136923 2.773289247e-05 2.41994141e-12)
(0.00119300802 3.363356198e-05 3.1080287e-12)
(0.001976872223 3.61795239e-05 2.847432724e-12)
(0.003020089668 3.694436727e-05 2.394258365e-12)
(0.004375267325 3.763146156e-05 3.166490019e-12)
(0.006102123512 3.949821326e-05 3.275573962e-12)
(0.008264326103 4.302350771e-05 2.721418038e-12)
(0.01092759224 4.804583146e-05 3.048312685e-12)
(0.01415890722 5.412157268e-05 4.797466884e-12)
(0.01802622456 6.077984346e-05 4.865704026e-12)
(0.02259827163 6.761227391e-05 3.962926263e-12)
(0.02794436685 7.428104168e-05 4.306770453e-12)
(0.03413425438 8.051002625e-05 4.429277466e-12)
(0.04123796583 8.607838515e-05 3.947668874e-12)
(0.04932571164 9.081700086e-05 3.104939802e-12)
(0.05846779832 9.460598224e-05 2.456093775e-12)
(0.06873456866 9.737119654e-05 3.653513587e-12)
(0.0801963563 9.907859739e-05 5.237348491e-12)
(0.09292345362 9.972435038e-05 3.317185556e-12)
(0.1069860809 9.931900126e-05 1.078372976e-12)
(0.1224543565 9.786441824e-05 3.060627579e-12)
(0.1393982998 9.531731516e-05 2.962144166e-12)
(0.1578880973 9.148622168e-05 1.701934203e-12)
(0.1779959771 8.583376299e-05 1.497116096e-12)
(0.1998070795 7.800337444e-05 3.832678714e-12)
(0.2234790737 7.055476096e-05 2.482893905e-12)
(0.2495694947 6.426074892e-05 -3.179962119e-13)
(0.2809499291 1.822729559e-05 1.340787054e-23)
(4.910986337e-05 1.253479617e-05 2.973866765e-12)
(0.0003089868843 3.257528329e-05 3.754828304e-12)
(0.0007383640711 5.0976651e-05 3.461530491e-12)
(0.001357249219 6.308702575e-05 3.186849777e-12)
(0.002196375364 6.950158598e-05 4.057783474e-12)
(0.003298534309 7.226530931e-05 4.13822366e-12)
(0.004717157571 7.384743531e-05 3.487964906e-12)
(0.006512604039 7.625133621e-05 4.768420286e-12)
(0.008748488069 8.044834366e-05 4.990189025e-12)
(0.01148967186 8.644674183e-05 3.032856309e-12)
(0.01480170897 9.37441356e-05 3.671361525e-12)
(0.01875081755 0.0001017176552 5.723772744e-12)
(0.02340385358 0.0001097973471 5.37239732e-12)
(0.02882820198 0.0001175037325 5.786222141e-12)
(0.03509163803 0.0001244448664 6.201922794e-12)
(0.04226220087 0.0001303104385 5.797936984e-12)
(0.05040809233 0.0001348684016 4.133711518e-12)
(0.05959760169 0.0001379627668 4.18050657e-12)
(0.06989905146 0.0001395104538 6.722246642e-12)
(0.08138076207 0.0001394952309 5.15009587e-12)
(0.09411102717 0.0001379568049 4.462032215e-12)
(0.1081580954 0.0001349720383 6.819690934e-12)
(0.1235901614 0.0001306260463 4.158642509e-12)
(0.1404754025 0.0001249636912 1.518714899e-12)
(0.1588823085 0.0001178702709 4.579263729e-12)
(0.1788816706 0.0001088920747 4.309655299e-12)
(0.2005576016 9.782549361e-05 2.117628265e-12)
(0.2240676409 8.711377212e-05 2.426641042e-13)
(0.2499742728 7.62211317e-05 0)
(0.281170704 2.386814511e-05 -6.19527256e-26)
(6.944129581e-05 1.705902534e-05 4.704704136e-12)
(0.0003753073459 4.625545484e-05 5.625969663e-12)
(0.0008559702114 7.293001166e-05 4.968169737e-12)
(0.001530218987 9.18001635e-05 4.684951468e-12)
(0.002427928957 0.000103144845 5.335068924e-12)
(0.003591842261 0.0001091096131 5.477391151e-12)
(0.005075951785 0.0001126047087 5.722603297e-12)
(0.006941255102 0.0001162114259 4.863028642e-12)
(0.009251490264 0.0001213924685 6.665190622e-12)
(0.01207086419 0.0001284192983 7.059172768e-12)
(0.01546363121 0.0001368344056 5.559180887e-12)
(0.01949433899 0.0001459394626 7.207118968e-12)
(0.02422800219 0.0001550530951 6.860691944e-12)
(0.02973008862 0.0001635876186 7.352506026e-12)
(0.03606641756 0.0001710578365 8.037990633e-12)
(0.04330304784 0.0001770781159 7.403544446e-12)
(0.05150618526 0.0001813601131 7.967348574e-12)
(0.0607421146 0.0001837110279 7.587705469e-12)
(0.07107715416 0.0001840300336 6.634229824e-12)
(0.08257762887 0.0001823008985 5.659718557e-12)
(0.09530985697 0.0001785783648 9.000742931e-12)
(0.1093401494 0.0001729648907 6.73299845e-12)
(0.124734824 0.0001655754638 5.076470404e-12)
(0.1415602793 0.0001564806313 5.413876704e-12)
(0.1598833892 0.0001455843729 1.981209727e-12)
(0.1797735897 0.0001324678389 1.807421459e-12)
(0.2013140975 0.0001169775876 1.708523465e-12)
(0.2246629171 0.0001013567138 4.937182222e-12)
(0.2503885922 8.461422477e-05 4.962236281e-12)
(0.2814013955 2.720372949e-05 -6.222813688e-13)
(9.054091639e-05 2.155345204e-05 4.907212297e-12)
(0.0004444560783 5.960394906e-05 6.348161447e-12)
(0.0009787715275 9.437622247e-05 6.245492838e-12)
(0.001711077371 0.0001201919621 5.001171947e-12)
(0.002670199213 0.0001370547978 5.230316868e-12)
(0.003898496839 0.0001470510101 6.863350248e-12)
(0.00545022797 0.0001533086773 7.208900939e-12)
(0.007386897476 0.0001588095619 7.682413651e-12)
(0.00977241862 0.0001654319178 6.430402756e-12)
(0.01267048087 0.0001737258563 7.446179777e-12)
(0.01614416199 0.000183332401 5.095953958e-12)
(0.0202564151 0.0001935281746 6.279693883e-12)
(0.02507045521 0.0002035565231 8.354304724e-12)
(0.03064985876 0.0002127465301 6.82545433e-12)
(0.03705850912 0.0002205373393 7.140058422e-12)
(0.04436050296 0.0002264797781 8.904637868e-12)
(0.05262006866 0.0002302358014 1.006378895e-11)
(0.0619015065 0.0002315774495 6.316035779e-12)
(0.07226915217 0.0002303830728 8.241125881e-12)
(0.08378736097 0.0002266291483 1.00465866e-11)
(0.09652050715 0.0002203746476 7.537704214e-12)
(0.1105330012 0.00021173541 8.187290827e-12)
(0.1258893274 0.0002008459731 6.31427189e-12)
(0.1426541556 0.0001878006379 6.367048586e-12)
(0.1608927839 0.0001725367453 2.328142677e-12)
(0.1806733152 0.0001546989889 1.849166683e-12)
(0.2020781145 0.0001342140201 6.283660636e-12)
(0.2252658909 0.0001132556369 1.785837039e-12)
(0.2508114613 9.080143544e-05 4.263177507e-13)
(0.2816387009 2.949979794e-05 -7.635391172e-13)
(0.000112896678 2.622650416e-05 5.861574293e-12)
(0.0005173752078 7.324672301e-05 7.657918514e-12)
(0.001107788336 0.0001161166945 7.563542287e-12)
(0.001900648979 0.0001489823166 7.513886133e-12)
(0.002923740803 0.0001716975609 7.196156954e-12)
(0.004218897479 0.0001862632969 8.277311365e-12)
(0.005840428024 0.0001959074672 8.724341411e-12)
(0.007850181584 0.0002038768572 9.312717957e-12)
(0.0103122114 0.0002123739556 9.851027332e-12)
(0.01328975682 0.0002222029742 1.049292103e-11)
(0.01684481026 0.0002331227955 1.109240207e-11)
(0.02103879944 0.0002444150198 9.088756552e-12)
(0.02593318261 0.0002552725741 9.819621138e-12)
(0.03158967353 0.0002649595187 1.104112792e-11)
(0.03807024163 0.0002728530022 1.072657151e-11)
(0.0454370418 0.0002784506704 7.754917434e-12)
(0.05375234468 0.0002813724721 8.148729634e-12)
(0.06307848627 0.0002813606253 8.068781095e-12)
(0.07347784235 0.0002782763128 8.173841397e-12)
(0.08501282197 0.0002720913411 8.934704253e-12)
(0.09774588299 0.0002628718453 8.1823169e-12)
(0.1117395638 0.0002507519884 9.614865685e-12)
(0.1270565469 0.0002358954383 8.127645724e-12)
(0.1437597977 0.0002184379731 7.094463719e-12)
(0.1619130557 0.0001983781433 7.919711736e-12)
(0.1815830893 0.000175457787 7.078660357e-12)
(0.2028514319 0.0001497269056 2.164269866e-12)
(0.2258776045 0.0001234069121 1.011282337e-12)
(0.2512426838 9.564487041e-05 -5.128790143e-13)
(0.2818814271 3.121361473e-05 -3.550428046e-23)
(0.0001367916183 3.118430201e-05 8.33906441e-12)
(0.0005946592961 8.754957269e-05 9.041604804e-12)
(0.001243718997 0.0001386944371 8.892020146e-12)
(0.002099534461 0.0001787517449 8.888568728e-12)
(0.003188945751 0.0002075552212 7.212976028e-12)
(0.004553241601 0.0002270565011 7.648072388e-12)
(0.006246657107 0.0002405369705 1.026733451e-11)
(0.00833123706 0.0002514202197 1.093948672e-11)
(0.01087109813 0.0002621527234 9.81790105e-12)
(0.01392904553 0.000273753641 9.49475118e-12)
(0.01756604792 0.0002860991834 1.09110939e-11)
(0.02184206651 0.0002984921659 1.043685927e-11)
(0.02681684561 0.0003100922363 1.129762881e-11)
(0.03255026692 0.0003201124826 1.272042207e-11)
(0.03910241027 0.0003278794777 1.199751483e-11)
(0.04653351076 0.0003328474792 1.341827426e-11)
(0.0549039023 0.0003346030736 1.268302266e-11)
(0.06427397851 0.0003328665183 1.442275852e-11)
(0.07470417645 0.0003274895005 3.985050022e-12)
(0.0862549829 0.0003184471192 5.410170287e-12)
(0.0989869619 0.0003058219788 8.631285236e-12)
(0.1129608052 0.0002897782848 1.035122499e-11)
(0.1282374132 0.0002705246262 9.403900736e-12)
(0.1448780646 0.0002482596785 3.601042015e-12)
(0.1629449418 0.0002230706429 3.047046244e-12)
(0.1825034728 0.0001948283316 1.589834905e-12)
(0.2036343605 0.00016374925 9.305224898e-12)
(0.226497991 0.0001321846392 7.115093026e-12)
(0.2516816627 9.953579797e-05 2.079388789e-13)
(0.2821287356 3.253643798e-05 -1.04552514e-12)
(0.000162379191 3.647806859e-05 8.087529779e-12)
(0.0006766936731 0.0001027056016 1.268908006e-11)
(0.001387082921 0.0001624324232 1.027909084e-11)
(0.002308255243 0.0002098881805 1.032888771e-11)
(0.003466232276 0.0002449928618 1.042846147e-11)
(0.004901811912 0.0002697059923 8.579318388e-12)
(0.006669102635 0.0002873573722 9.247372757e-12)
(0.008830231596 0.0003014969203 1.077697949e-11)
(0.01144929009 0.0003147535191 1.307037721e-11)
(0.01458863296 0.0003283207947 1.398757633e-11)
(0.0183082405 0.0003421817238 1.229763363e-11)
(0.02266665467 0.0003556676423 1.184829711e-11)
(0.02772194567 0.0003679168779 1.276126687e-11)
(0.03353219308 0.0003781028708 1.446665275e-11)
(0.04015561272 0.0003855117499 1.347585462e-11)
(0.04765054248 0.0003895638957 1.53551637e-11)
(0.05607540138 0.0003898216597 1.060331089e-11)
(0.06548866189 0.0003859925113 1.064675581e-11)
(0.07594884384 0.0003779280178 1.568592331e-11)
(0.08751453308 0.0003656167872 9.514713993e-12)
(0.1002444218 0.000349169568 1.032796263e-11)
(0.114197373 0.0003287944809 1.088270089e-11)
(0.1294325233 0.0003047620189 4.105785062e-12)
(0.1460094711 0.0002773547022 9.637855567e-12)
(0.1639888395 0.0002467731838 1.097836598e-11)
(0.1834347013 0.0002130458718 1.345000384e-12)
(0.2044269187 0.0001765916263 2.351129627e-12)
(0.2271267833 0.00013994096 9.783343129e-13)
(0.2521278119 0.0001027702096 8.529437845e-12)
(0.282379993 3.36038031e-05 8.082603313e-12)
(0.0001897706737 4.213959925e-05 7.242777144e-12)
(0.0007637830998 0.0001188276361 1.212037406e-11)
(0.001538326614 0.000187531627 1.428627066e-11)
(0.002527313745 0.0002426516164 1.176339556e-11)
(0.003756074723 0.0002842769755 1.190002664e-11)
(0.005265009362 0.0003144349025 1.229140372e-11)
(0.007108100738 0.0003365200166 1.022944154e-11)
(0.009347481581 0.0003541842338 1.399838793e-11)
(0.01204713377 0.0003701951493 1.4850874e-11)
(0.01526892686 0.0003858849351 1.340758658e-11)
(0.01907186744 0.000401328572 1.371383274e-11)
(0.02351311358 0.0004158876243 1.316465569e-11)
(0.02864909564 0.0004286874265 1.09571428e-11)
(0.0345361201 0.0004388710941 1.14410815e-11)
(0.04123056336 0.0004456935266 1.488764662e-11)
(0.04878888842 0.000448550343 1.665805817e-11)
(0.05726762077 0.0004469888908 1.78752939e-11)
(0.06672333197 0.000440713411 1.095017086e-11)
(0.07721264559 0.0004295854615 1.240133731e-11)
(0.08879226568 0.0004136181456 1.619408137e-11)
(0.1015190308 0.0003929626191 1.217461411e-11)
(0.1154499929 0.0003678850178 1.120791271e-11)
(0.1306425336 0.0003387342643 1.848315581e-11)
(0.1471545759 0.0003058959456 9.989579438e-12)
(0.1650451758 0.0002697060087 1.154658248e-11)
(0.1843770302 0.0002303744016 9.173582813e-12)
(0.2052291539 0.0001885481305 2.205776536e-12)
(0.2277637936 0.0001469610424 1.869135096e-12)
(0.2525807316 0.0001055567697 -5.517519019e-13)
(0.2826347978 3.450182022e-05 -1.917739098e-13)
(0.0002190634533 4.819285916e-05 1.353314773e-11)
(0.0008561946925 0.0001359918702 1.365508546e-11)
(0.001697851566 0.0002141282731 1.344608336e-11)
(0.002757188326 0.0002772251466 1.611921776e-11)
(0.004058964532 0.0003256068781 1.340377845e-11)
(0.005643294222 0.0003614240608 1.192261275e-11)
(0.007564071578 0.0003881624092 1.121073808e-11)
(0.009883390999 0.0004095683221 1.21504079e-11)
(0.01266505268 0.0004285191316 1.414686001e-11)
(0.015970397 0.0004464561171 1.475421721e-11)
(0.019857457 0.000463530723 1.81793351e-11)
(0.02438203094 0.0004791332051 1.909394846e-11)
(0.02959893844 0.0004923815687 1.667689939e-11)
(0.03556273926 0.0005023963762 1.595047966e-11)
(0.04232799341 0.0005084096535 1.232666447e-11)
(0.04994931072 0.0005098009427 1.326241125e-11)
(0.05848134327 0.0005061116611 1.848290386e-11)
(0.06797878194 0.0004970523707 1.913195799e-11)
(0.07849637231 0.0004825048494 1.269128505e-11)
(0.0900889554 0.0004625177886 5.342260065e-12)
(0.1028115315 0.0004372948922 1.327626029e-11)
(0.1167193541 0.0004071740692 1.226366188e-11)
(0.1318680594 0.0003725981278 7.155718395e-12)
(0.1483138932 0.0003340729212 1.011448087e-11)
(0.1661143329 0.0002920883179 1.080872429e-11)
(0.1853306841 0.0002470547203 3.464868782e-12)
(0.2060411089 0.0001998636295 2.059713746e-12)
(0.22840889 0.000153459599 1.204305446e-11)
(0.2530401531 0.0001080368309 9.567971129e-12)
(0.28289289 3.528379827e-05 -1.797882431e-12)
(0.0002503518869 5.465905857e-05 1.163725501e-11)
(0.0009541803492 0.0001542585332 1.844546703e-11)
(0.001866036329 0.0002423255737 1.496184871e-11)
(0.002998342627 0.0003137483872 1.307612156e-11)
(0.004375402613 0.0003691404672 1.493761414e-11)
(0.006037165188 0.0004108259699 1.85345251e-11)
(0.008037495408 0.0004424116857 1.584121534e-11)
(0.01043843141 0.0004677414019 1.322179091e-11)
(0.01330353303 0.0004897843809 1.537062398e-11)
(0.01669356616 0.0005100681409 1.604799059e-11)
(0.02066557998 0.0005288061567 1.539244236e-11)
(0.02527402827 0.0005454141831 1.77045268e-11)
(0.03057214312 0.0005590066822 1.823598588e-11)
(0.03661276105 0.0005686882325 1.304613813e-11)
(0.04344864742 0.0005736755267 1.310984686e-11)
(0.05113257899 0.000573340278 1.89953144e-11)
(0.05971735402 0.0005672267837 1.957221022e-11)
(0.06925580102 0.0005550613388 2.118217473e-11)
(0.0798008055 0.0005367559468 2.107678813e-11)
(0.09140536081 0.0005124057597 1.280905459e-11)
(0.1041226445 0.0004822788863 6.351252879e-12)
(0.1180061214 0.0004467979961 1.329191956e-11)
(0.1331096867 0.0004065138928 2.216527308e-11)
(0.1494879076 0.0003620679135 1.225736418e-11)
(0.1671966719 0.0003141194783 3.703450376e-12)
(0.1862958776 0.0002632937366 3.384260262e-12)
(0.2068628473 0.0002107352697 6.414539054e-13)
(0.229062002 0.0001595972314 2.01930889e-12)
(0.2535059108 0.0001103081602 1.626044621e-12)
(0.2831541007 3.598435238e-05 -2.076960643e-12)
(0.000283732307 6.155900739e-05 1.013771892e-11)
(0.001057989371 0.0001736819516 1.707230398e-11)
(0.002043251699 0.000272211218 2.011090374e-11)
(0.003251235669 0.0003523379786 1.984746384e-11)
(0.004705899298 0.0004150120485 1.645939037e-11)
(0.006447150709 0.0004627763507 1.464114623e-11)
(0.008528899845 0.0004993894414 1.499236239e-11)
(0.01101313002 0.0005288016097 1.424552108e-11)
(0.01396311634 0.0005540643755 1.959860077e-11)
(0.01743900625 0.0005767745355 2.551446378e-11)
(0.02149684888 0.0005971951185 2.180742451e-11)
(0.02618976129 0.0006147636344 1.916364141e-11)
(0.03156940654 0.0006285935872 1.970591258e-11)
(0.0376869182 0.0006377792041 1.979270739e-11)
(0.04459328685 0.0006415287796 1.874646784e-11)
(0.05233947493 0.0006392139576 1.548526209e-11)
(0.06097644522 0.0006303903873 1.406818732e-11)
(0.07055518082 0.0006148091988 2.319802919e-11)
(0.08112672356 0.0005924224358 2.220619876e-11)
(0.09274223425 0.0005633821981 2.304355405e-11)
(0.1054530791 0.0005280323567 2.086341587e-11)
(0.1193109438 0.0004868924917 1.429172489e-11)
(0.1343679864 0.0004406342858 6.219889105e-12)
(0.1506770914 0.0003900477185 7.375358649e-12)
(0.1682925465 0.0003359745632 2.251326065e-12)
(0.1872728348 0.000279265014 1.261836361e-11)
(0.2076944635 0.000221319917 9.519008449e-12)
(0.2297231228 0.0001654945433 1.864307067e-12)
(0.2539779196 0.0001124397523 1.494588475e-12)
(0.2834183237 3.662674355e-05 -2.35460503e-12)
(0.0003193049037 6.891404979e-05 1.691233248e-11)
(0.001167874945 0.0001943152608 1.480320982e-11)
(0.002229869613 0.0003038665808 1.616915478e-11)
(0.003516328952 0.0003930994365 1.578200283e-11)
(0.005050976103 0.0004633435781 1.803923698e-11)
(0.006873804259 0.0005174020898 2.235982217e-11)
(0.009038851176 0.0005592154713 2.31360243e-11)
(0.01160806136 0.0005928531845 1.986851592e-11)
(0.01464439273 0.0006214451241 1.650561956e-11)
(0.0182073346 0.0006466454058 1.928117194e-11)
(0.02235191611 0.000668756422 1.991461475e-11)
(0.02712991997 0.0006872337802 2.053484772e-11)
(0.03259145434 0.0007011919402 2.10657038e-11)
(0.03878596726 0.0007097197387 2.173898422e-11)
(0.04576269223 0.0007120235277 1.944087105e-11)
(0.05357079489 0.000707482236 2.470204521e-11)
(0.06225941892 0.0006956710131 1.479996547e-11)
(0.07187771879 0.0006763746481 1.064684015e-11)
(0.08247490707 0.0006495947155 6.800822987e-12)
(0.09410032553 0.0006155503691 1.025144107e-11)
(0.1068035405 0.0005746719833 6.075046747e-12)
(0.1206344652 0.0005275872004 1.526149457e-11)
(0.1356435232 0.0004751002242 2.313914986e-11)
(0.1518819131 0.0004181611741 2.653079566e-11)
(0.1694023156 0.000357804559 2.190299083e-11)
(0.1882617967 0.0002951126406 1.387460841e-11)
(0.2085360904 0.0002317422054 1.715389256e-13)
(0.2303922992 0.0001712428325 1.709554551e-12)
(0.2544561593 0.0001144810417 -3.783277294e-13)
(0.2836854988 3.722656157e-05 -2.63056957e-12)
(0.0003571742792 7.674641409e-05 1.691034231e-11)
(0.001284097091 0.0002162125192 2.018648141e-11)
(0.002426268401 0.0003373714747 1.984288745e-11)
(0.003794091493 0.0004361337861 2.36757872e-11)
(0.005411167674 0.0005142513643 1.964095861e-11)
(0.007317702517 0.000574826292 1.740575448e-11)
(0.009567949803 0.0006220102505 1.776427755e-11)
(0.01222384162 0.0006600065219 1.843178971e-11)
(0.01534799696 0.0006920235922 1.754846537e-11)
(0.01899921135 0.0007197649451 2.046266685e-11)
(0.02323147307 0.0007435644398 2.127495937e-11)
(0.02809522879 0.000762892678 2.18739905e-11)
(0.03363904202 0.0007768667192 2.245619101e-11)
(0.03991069006 0.0007845745339 2.346101165e-11)
(0.04695766519 0.000785226607 1.534221578e-11)
(0.0548273519 0.0007782161953 1.76371163e-11)
(0.06356709072 0.000763145804 2.487850669e-11)
(0.07322422172 0.0007398424114 2.393374965e-11)
(0.08384614255 0.0007083662392 2.390590332e-11)
(0.09548038794 0.0006690131757 2.614372766e-11)
(0.1081747338 0.0006223102004 1.55843907e-11)
(0.1219773284 0.0005690034264 6.081409895e-12)
(0.1369368622 0.0005100399792 5.822026579e-12)
(0.1531028463 0.0004465399438 7.348366143e-12)
(0.1705263496 0.0003797389008 4.566691847e-12)
(0.189263028 0.0003109559242 4.604715454e-12)
(0.2093878966 0.0002421015685 1.451108423e-12)
(0.2310696292 0.0001769121849 -1.276067343e-13)
(0.2549406614 0.0001164684897 -2.50687833e-12)
(0.2839555968 3.77949764e-05 -2.904613323e-12)
(0.0003974494531 8.5079292e-05 1.672899931e-11)
(0.001406924284 0.0002394296042 2.667140612e-11)
(0.002632836069 0.0003728065823 2.149521892e-11)
(0.004085003486 0.0004815413184 1.860929196e-11)
(0.005787024269 0.0005678501625 1.84021551e-11)
(0.007779445127 0.0006351714914 1.857698941e-11)
(0.0101168277 0.0006878964989 1.894227389e-11)
(0.01286112554 0.0007303780179 1.958069866e-11)
(0.01607460516 0.0007659062497 1.490234946e-11)
(0.01981533799 0.0007962292734 1.556669305e-11)
(0.02413625012 0.0008217066667 2.261820718e-11)
(0.0290864477 0.0008418216726 2.317872381e-11)
(0.03471295684 0.0008556955951 2.345666833e-11)
(0.04106189644 0.0008624198493 2.554951163e-11)
(0.04817903143 0.0008612148863 2.408539308e-11)
(0.05610997982 0.0008514950914 2.369961098e-11)
(0.06490029271 0.0008328979423 2.664714132e-11)
(0.07459550987 0.0008053008478 2.568870972e-11)
(0.08524122664 0.0007688314534 2.572507172e-11)
(0.0968831821 0.0007238715782 2.819799545e-11)
(0.1095673709 0.0006710542915 2.547560445e-11)
(0.1233401817 0.0006112538368 2.54830803e-11)
(0.1382485753 0.0005455695436 2.752026965e-11)
(0.1543403743 0.0004752999448 2.712499065e-11)
(0.1716650352 0.0004018884564 1.611726061e-11)
(0.1902768186 0.0003268941593 2.866413782e-12)
(0.2102500878 0.0002524780948 2.944049355e-12)
(0.2317552541 0.0001825570712 -1.458775747e-11)
(0.2554314975 0.000118429275 -1.724756909e-11)
(0.2842286133 3.83399327e-05 -3.176493289e-12)
(0.0004402438639 9.393685769e-05 2.205109682e-11)
(0.001536634365 0.0002640246149 2.11103747e-11)
(0.002849972437 0.0004102546965 2.028765168e-11)
(0.004389559072 0.0005294236128 2.270230234e-11)
(0.006179113708 0.0006242554728 2.755067025e-11)
(0.008259655264 0.0006985615238 2.794317819e-11)
(0.01068614741 0.0007570000967 2.888065914e-11)
(0.01352060442 0.000804089892 3.006239938e-11)
(0.0168249337 0.0008432079717 2.770024202e-11)
(0.02065645684 0.0008761447981 2.034878668e-11)
(0.02506701695 0.0009032818075 2.377696258e-11)
(0.03010437345 0.0009241134115 2.453473409e-11)
(0.03581401976 0.0009377670033 2.483215552e-11)
(0.0422404266 0.0009433416764 2.61877674e-11)
(0.04942764384 0.000940073516 2.669500438e-11)
(0.05741953583 0.0009274047113 2.410811427e-11)
(0.0662598775 0.0009050151072 2.837893753e-11)
(0.07599242083 0.0008728405323 2.863561147e-11)
(0.08666097063 0.0008310845233 1.822095329e-11)
(0.09830948091 0.0007802236305 1.258890995e-11)
(0.1109821735 0.000721005929 6.130224643e-12)
(0.124723684 0.0006544426301 -2.709579083e-12)
(0.1395792462 0.0005817936199 -3.557933958e-12)
(0.1555949954 0.0005045432979 5.25216209e-12)
(0.1728187801 0.0004243484367 1.719032097e-11)
(0.1913034866 0.0003430101719 2.520875234e-11)
(0.2111229043 0.0002629365469 2.814126595e-11)
(0.2324493525 0.0001882202131 1.102377174e-11)
(0.2559287747 0.000120383981 -4.615454478e-12)
(0.2845045622 3.886706849e-05 -3.445963497e-12)
(0.0004856751945 0.000103344231 2.180979071e-11)
(0.001673514886 0.0002900579576 3.103246973e-11)
(0.003078090523 0.0004498012819 3.01064767e-11)
(0.004708268548 0.0005798846984 2.426700525e-11)
(0.006588023603 0.0006835849949 2.121854366e-11)
(0.008758980903 0.0007651227767 2.125072673e-11)
(0.01127660221 0.0008294506933 2.176290146e-11)
(0.01420300572 0.0008812699734 2.246807094e-11)
(0.01759973864 0.0009240511379 2.954858586e-11)
(0.02152335084 0.0009596268271 2.82926057e-11)
(0.02602458326 0.000988398153 2.497861815e-11)
(0.03114984092 0.001009870137 2.586363515e-11)
(0.03694308739 0.001023178403 2.617490519e-11)
(0.04344715354 0.001027434017 2.666674335e-11)
(0.05070438493 0.001021894362 2.941686638e-11)
(0.05875690395 0.001006035997 1.855771455e-11)
(0.06764672104 0.0009795883247 1.153878449e-11)
(0.07741581259 0.0009425534108 1.223765478e-11)
(0.08810620388 0.0008952188389 1.895451615e-11)
(0.09976007333 0.0008381642879 3.104963705e-11)
(0.1124198787 0.0007722612854 2.806689561e-11)
(0.1261285084 0.000698666162 2.943040801e-11)
(0.1409294739 0.0006188068435 1.763315569e-11)
(0.1568672261 0.0005343601289 1.537927783e-12)
(0.1739880135 0.0004472008639 5.307439582e-12)
(0.1923433776 0.0003593736269 3.856657349e-12)
(0.2120066199 0.0002735301361 2.285951627e-12)
(0.2331521389 0.0001939359997 1.411240767e-11)
(0.2564326273 0.0001223488622 1.075593813e-11)
(0.2847834722 3.93809355e-05 -6.121909943e-12)
(0.0005338653097 0.0001133274649 2.124803841e-11)
(0.001817863631 0.0003175924416 3.039241336e-11)
(0.003317618003 0.0004915348997 2.34245832e-11)
(0.005041660234 0.0006330317941 2.26291654e-11)
(0.007014363212 0.0007459595163 2.570296216e-11)
(0.009278096214 0.000834984949 3.182719219e-11)
(0.0118889168 0.0009053820355 2.914623125e-11)
(0.0149090932 0.0009620514422 2.349571209e-11)
(0.01839981556 0.001008564844 2.452129145e-11)
(0.02241684434 0.001046798462 2.526198973e-11)
(0.02700979986 0.001077172294 2.623826311e-11)
(0.0322237249 0.001099202334 2.706199689e-11)
(0.03810105417 0.001112034991 2.74824621e-11)
(0.04468298564 0.001114797727 2.811582543e-11)
(0.05201016997 0.001106774895 3.105092268e-11)
(0.06012299793 0.001087483946 2.18063027e-11)
(0.06906172701 0.001056711002 1.776779312e-11)
(0.07886656784 0.001014531999 3.109052229e-11)
(0.08957777729 0.0009613264673 2.839349758e-11)
(0.1012357681 0.0008977852026 3.143011522e-11)
(0.1138812418 0.0008249111189 2.010126018e-11)
(0.1275553466 0.0007440133013 1.040755926e-11)
(0.1422998766 0.0006566947065 1.675447192e-11)
(0.1581576043 0.0005648302514 2.732096637e-11)
(0.17517319 0.0004705167959 1.668228086e-11)
(0.1933968659 0.0003760434497 3.627561214e-12)
(0.2129015395 0.0002843026739 3.653101117e-14)
(0.2338638568 0.0001997319426 -1.791076632e-12)
(0.2569432155 0.0001243364318 6.954014927e-13)
(0.2850653841 3.988471904e-05 -9.053305353e-12)
(0.0005849403247 0.0001239135291 2.76363888e-11)
(0.001969989107 0.0003466932705 3.258572827e-11)
(0.003568998138 0.0005355473097 3.455541094e-11)
(0.005390282114 0.0006889756072 3.010425033e-11)
(0.007458765529 0.0008115034262 2.09804644e-11)
(0.009817703347 0.000908281565 2.395743722e-11)
(0.01252384856 0.0009849322743 3.089320787e-11)
(0.01563966771 0.00104657276 3.159941856e-11)
(0.01922600079 0.001096884396 2.562139165e-11)
(0.02333780385 0.001137789714 2.646226895e-11)
(0.02802356044 0.001169728072 3.274705348e-11)
(0.03332694198 0.001192227608 3.709970945e-11)
(0.03928885494 0.001204448519 2.966179231e-11)
(0.04594886959 0.001205539337 2.8330428e-11)
(0.05334594991 0.001194817142 2.424542336e-11)
(0.06151876485 0.001171846804 2.254052123e-11)
(0.07050582839 0.001136478285 2.637165073e-11)
(0.08034559675 0.001088868833 3.275274478e-11)
(0.09107656756 0.001029497638 2.084882799e-11)
(0.1027373975 0.0009591744134 9.916363811e-12)
(0.1153670405 0.0008790410085 2.256088466e-11)
(0.1290049114 0.000790566314 3.20805331e-11)
(0.1436910943 0.000695534676 6.21429883e-12)
(0.159466691 0.0005960243627 -8.043867278e-12)
(0.1763747901 0.0004943579003 1.754452e-11)
(0.1944643541 0.0003930697942 1.57466268e-11)
(0.2138079979 0.0002952908371 -2.417755794e-12)
(0.2345847794 0.0002056307453 -2.136640116e-12)
(0.2574607199 0.0001263567814 -1.931401367e-12)
(0.2853503482 4.038089563e-05 -6.90305134e-12)
(0.0006390306379 0.0001351303165 2.700995855e-11)
(0.002130210921 0.0003774280749 3.844113177e-11)
(0.003832691013 0.0005819336846 3.336269881e-11)
(0.005754703834 0.0007478307603 3.203777176e-11)
(0.007921889204 0.0008803451796 3.227765506e-11)
(0.01037853447 0.000985150333 3.186423575e-11)
(0.01318218927 0.001068244074 2.562556643e-11)
(0.01639556883 0.0011349775 3.343047973e-11)
(0.02007917242 0.001189150881 3.434821764e-11)
(0.02428714 0.001232736835 2.753747153e-11)
(0.02906680287 0.001266195705 2.025858597e-11)
(0.0344604529 0.001289069719 2.339624379e-11)
(0.04050746724 0.001300536353 3.142842045e-11)
(0.04724579298 0.001299770094 3.092167541e-11)
(0.05471271462 0.001286126695 3.143685621e-11)