# vtk DataFile Version 2.0
track0
ASCII
DATASET POLYDATA
POINTS 12278 float
-0.0205 0.001 1e-05
-0.02052 0.000999216 1e-05
-0.02054 0.000998592 1e-05
-0.02056 0.000998126 1e-05
-0.02058 0.000997818 1e-05
-0.0206 0.000997665 1e-05
-0.0205 0.00367778 1e-05
-0.02052 0.00367703 1e-05
-0.02054 0.00367643 1e-05
-0.02056 0.00367599 1e-05
-0.02058 0.00367569 1e-05
-0.0206 0.00367554 1e-05
-0.0205 0.00635556 1e-05
-0.02052 0.00635527 1e-05
-0.02054 0.00635505 1e-05
-0.02056 0.00635488 1e-05
-0.02058 0.00635476 1e-05
-0.0206 0.00635471 1e-05
-0.0205 0.00903333 1e-05
-0.02052 0.00903311 1e-05
-0.02054 0.00903293 1e-05
-0.02056 0.0090328 1e-05
-0.02058 0.00903271 1e-05
-0.0206 0.00903266 1e-05
-0.0205 0.0117111 1e-05
-0.02052 0.0117111 1e-05
-0.02054 0.011711 1e-05
-0.02056 0.011711 1e-05
-0.02058 0.011711 1e-05
-0.0206 0.011711 1e-05
-0.0205 0.0143889 1e-05
-0.02052 0.014389 1e-05
-0.02054 0.014389 1e-05
-0.02056 0.0143891 1e-05
-0.02058 0.0143891 1e-05
-0.0206 0.0143891 1e-05
-0.0205 0.0170667 1e-05
-0.02052 0.017067 1e-05
-0.02054 0.0170672 1e-05
-0.02056 0.0170674 1e-05
-0.02058 0.0170675 1e-05
-0.0206 0.0170676 1e-05
-0.0205 0.0197444 1e-05
-0.02052 0.019745 1e-05
-0.02054 0.0197454 1e-05
-0.02056 0.0197457 1e-05
-0.02058 0.0197459 1e-05
-0.0206 0.019746 1e-05
-0.0205 0.0224222 1e-05
-0.02052 0.022423 1e-05
-0.02054 0.0224236 1e-05
-0.02056 0.0224241 1e-05
-0.02058 0.0224244 1e-05
-0.0206 0.0224245 1e-05
-0.0205 0.0251 1e-05
-0.02052 0.0251003 1e-05
-0.02054 0.0251005 1e-05
-0.02056 0.0251007 1e-05
-0.02058 0.0251008 1e-05
-0.0206 0.0251008 1e-05
-0.0205 0.001 1e-05
-0.0203632 0.00100536 1e-05
-0.0202266 0.00101331 1e-05
-0.0200901 0.00102296 1e-05
-0.0200427 0.00102682 1e-05
-0.0198376 0.00104418 1e-05
-0.0196338 0.00107322 1e-05
-0.0194327 0.00111734 1e-05
-0.0192368 0.00118024 1e-05
-0.0190172 0.00124951 1e-05
-0.0189002 0.00128348 1e-05
-0.0187827 0.00131598 1e-05
-0.0186649 0.001347 1e-05
-0.0185469 0.001377 1e-05
-0.0183807 0.00141936 1e-05
-0.0182041 0.00146458 1e-05
-0.0180267 0.00150692 1e-05
-0.0178487 0.0015464 1e-05
-0.0176703 0.00158389 1e-05
-0.0174976 0.00161991 1e-05
-0.0172846 0.00166394 1e-05
-0.0170715 0.00170741 1e-05
-0.0168583 0.00175029 1e-05
-0.0166449 0.00179219 1e-05
-0.0163945 0.00184007 1e-05
-0.0163234 0.00185324 1e-05
-0.0162522 0.00186629 1e-05
-0.016181 0.00187921 1e-05
-0.0161097 0.00189201 1e-05
-0.0160387 0.0019046 1e-05
-0.0157586 0.0019535 1e-05
-0.0154779 0.00199931 1e-05
-0.0151968 0.00204225 1e-05
-0.0149154 0.00208283 1e-05
-0.0146381 0.00212134 1e-05
-0.0143838 0.00215527 1e-05
-0.0141293 0.00218766 1e-05
-0.0138747 0.00221855 1e-05
-0.0136198 0.00224797 1e-05
-0.0132934 0.00228369 1e-05
-0.0132791 0.00228515 1e-05
-0.0132648 0.0022866 1e-05
-0.0132504 0.00228805 1e-05
-0.0132361 0.0022895 1e-05
-0.0132214 0.00229098 1e-05
-0.0129776 0.00231543 1e-05
-0.0127337 0.00233865 1e-05
-0.0124897 0.00236061 1e-05
-0.0122456 0.00238129 1e-05
-0.0120025 0.00240058 1e-05
-0.0117547 0.00241909 1e-05
-0.0115067 0.00243627 1e-05
-0.0112587 0.00245231 1e-05
-0.0110106 0.00246734 1e-05
-0.0107632 0.00248136 1e-05
-0.0105252 0.00249391 1e-05
-0.0102872 0.00250547 1e-05
-0.0100491 0.00251602 1e-05
-0.00981105 0.00252575 1e-05
-0.00957337 0.00253471 1e-05
-0.00934491 0.00254261 1e-05
-0.00911643 0.00254974 1e-05
-0.00888792 0.0025561 1e-05
-0.0086594 0.00256171 1e-05
-0.00843108 0.00256668 1e-05
-0.00821175 0.00257084 1e-05
-0.00799241 0.00257439 1e-05
-0.00777306 0.00257731 1e-05
-0.0075537 0.00257952 1e-05
-0.00733443 0.00258114 1e-05
-0.00712387 0.00258212 1e-05
-0.0069133 0.00258255 1e-05
-0.00670273 0.00258243 1e-05
-0.00649216 0.00258162 1e-05
-0.0062816 0.00258017 1e-05
-0.00607944 0.00257819 1e-05
-0.0058773 0.00257565 1e-05
-0.00567516 0.00257256 1e-05
-0.00547303 0.00256874 1e-05
-0.00527083 0.00256419 1e-05
-0.00507675 0.00255912 1e-05
-0.00488269 0.00255343 1e-05
-0.00468865 0.00254711 1e-05
-0.00449464 0.00253997 1e-05
-0.00430044 0.0025319 1e-05
-0.00411412 0.00252329 1e-05
-0.00392784 0.00251388 1e-05
-0.00374159 0.00250368 1e-05
-0.0035554 0.00249254 1e-05
-0.00336883 0.00248016 1e-05
-0.00318995 0.00246711 1e-05
-0.00301115 0.00245299 1e-05
-0.00283245 0.00243774 1e-05
-0.00265386 0.0024212 1e-05
-0.00247443 0.00240314 1e-05
-0.0023027 0.00238425 1e-05
-0.00213114 0.00236384 1e-05
-0.00195982 0.00234154 1e-05
-0.00178875 0.00231738 1e-05
-0.00161577 0.00229105 1e-05
-0.00161568 0.00229104 1e-05
-0.0016156 0.00229102 1e-05
-0.00161551 0.00229101 1e-05
-0.00161542 0.00229099 1e-05
-0.00161533 0.00229098 1e-05
-0.00145055 0.00226407 1e-05
-0.00128617 0.00223481 1e-05
-0.00112221 0.00220326 1e-05
-0.000958703 0.00216946 1e-05
-0.000791418 0.00213236 1e-05
-0.000633135 0.00209425 1e-05
-0.000475556 0.00205332 1e-05
-0.000318719 0.00200963 1e-05
-0.000162835 0.00196266 1e-05
0 0.00190951 1e-05
3.73339e-05 0.00189631 1e-05
7.45679e-05 0.00188283 1e-05
0.000111703 0.00186908 1e-05
0.000148742 0.00185508 1e-05
0.000179047 0.00184338 1e-05
0.000248915 0.00181593 1e-05
0.000318372 0.00178747 1e-05
0.000387404 0.00175799 1e-05
0.000455996 0.0017275 1e-05
0.000528387 0.00169412 1e-05
0.000634886 0.00164314 1e-05
0.000740278 0.00158991 1e-05
0.00084451 0.00153444 1e-05
0.00094762 0.00147691 1e-05
0.00101985 0.00143468 1e-05
0.00102805 0.00142973 1e-05
0.00103625 0.00142475 1e-05
0.00104444 0.00141976 1e-05
0.00105262 0.00141475 1e-05
0.00106088 0.00140967 1e-05
0.00116821 0.00134349 1e-05
0.00127404 0.00127493 1e-05
0.00137827 0.00120397 1e-05
0.00148099 0.00113084 1e-05
0.00159665 0.00104511 1e-05
0.00159682 0.00104497 1e-05
0.00159699 0.00104484 1e-05
0.00159717 0.0010447 1e-05
0.00159734 0.00104457 1e-05
0.00159752 0.00104443 1e-05
0.00169217 0.000970868 1e-05
0.00178542 0.00089554 1e-05
0.00187719 0.000818415 1e-05
0.00196755 0.000739636 1e-05
0.00203793 0.000676367 1e-05
0.00205801 0.000657864 1e-05
0.00207801 0.000639273 1e-05
0.00209792 0.000620592 1e-05
0.00211777 0.000601848 1e-05
0.00213833 0.000582319 1e-05
0.00219145 0.000531514 1e-05
0.00224407 0.000480192 1e-05
0.00229617 0.000428346 1e-05
0.00234775 0.000375969 1e-05
0.00239403 0.000328255 1e-05
0.00245189 0.000267778 1e-05
0.00250912 0.000206701 1e-05
0.00256572 0.000145041 1e-05
0.0026218 8.29138e-05 1e-05
0.00268334 1.35701e-05 1e-05
0.0026857 1.08561e-05 1e-05
0.00268806 8.14105e-06 1e-05
0.00269042 5.42503e-06 1e-05
0.00269278 2.70801e-06 1e-05
0.00269512 0 1e-05
0.00275902 -7.37367e-05 1e-05
0.0028223 -0.000148005 1e-05
0.00288494 -0.000222813 1e-05
0.00294691 -0.000298173 1e-05
0.00300398 -0.000368654 1e-05
0.00304971 -0.000425953 1e-05
0.00309512 -0.000483499 1e-05
0.00314022 -0.000541286 1e-05
0.00318507 -0.000599269 1e-05
0.00323259 -0.000661268 1e-05
0.00325062 -0.000685033 1e-05
0.0032686 -0.000708838 1e-05
0.00328652 -0.000732682 1e-05
0.0033044 -0.000756567 1e-05
0.00332193 -0.000780089 1e-05
0.00339007 -0.000871877 1e-05
0.00345761 -0.000964107 1e-05
0.00352453 -0.00105679 1e-05
0.0035909 -0.00114986 1e-05
0.00365377 -0.00123896 1e-05
0.00368024 -0.00127687 1e-05
0.00370663 -0.00131484 1e-05
0.00373294 -0.00135285 1e-05
0.00375921 -0.00139091 1e-05
0.00378611 -0.00143 1e-05
0.00383008 -0.00149409 1e-05
0.00387383 -0.00155833 1e-05
0.00391736 -0.00162272 1e-05
0.00396067 -0.00168726 1e-05
0.00400281 -0.00175043 1e-05
0.00407103 -0.00185329 1e-05
0.00413884 -0.00195642 1e-05
0.00420622 -0.00205983 1e-05
0.00427332 -0.00216342 1e-05
0.00434393 -0.00227312 1e-05
0.00434996 -0.00228256 1e-05
0.00435599 -0.002292 1e-05
0.00436202 -0.00230144 1e-05
0.00436804 -0.00231088 1e-05
0.00437404 -0.0023203 1e-05
0.00445489 -0.00244725 1e-05
0.00453529 -0.00257448 1e-05
0.00461529 -0.00270197 1e-05
0.00469493 -0.00282968 1e-05
0.00477281 -0.00295497 1e-05
0.00479947 -0.00299801 1e-05
0.0048261 -0.00304107 1e-05
0.0048527 -0.00308414 1e-05
0.0048793 -0.00312722 1e-05
0.00490609 -0.00317062 1e-05
0.00496671 -0.00326882 1e-05
0.00502719 -0.00336711 1e-05
0.00508752 -0.0034655 1e-05
0.00514771 -0.00356397 1e-05
0.00520735 -0.00366161 1e-05
0.0052604 -0.00374853 1e-05
0.00531342 -0.00383547 1e-05
0.00536639 -0.00392244 1e-05
0.00541939 -0.0040094 1e-05
0.00547262 -0.00409661 1e-05
0.00551559 -0.00416691 1e-05
0.00555852 -0.00423723 1e-05
0.00560143 -0.00430758 1e-05
0.00564431 -0.00437793 1e-05
0.00568713 -0.00444811 1e-05
0.00575841 -0.00456486 1e-05
0.00582974 -0.00468158 1e-05
0.00590112 -0.00479828 1e-05
0.00597264 -0.00491488 1e-05
0.00604356 -0.00503006 1e-05
0.00607981 -0.0050887 1e-05
0.00611607 -0.00514733 1e-05
0.00615234 -0.00520596 1e-05
0.00618863 -0.00526458 1e-05
0.00622503 -0.00532326 1e-05
0.00630381 -0.00545002 1e-05
0.00638278 -0.00557667 1e-05
0.00646195 -0.00570319 1e-05
0.00654139 -0.00582955 1e-05
0.00661893 -0.00595208 1e-05
0.00666283 -0.006021 1e-05
0.00670679 -0.00608989 1e-05
0.0067508 -0.00615875 1e-05
0.00679489 -0.00622755 1e-05
0.00683936 -0.00629671 1e-05
0.00691125 -0.00640811 1e-05
0.00698338 -0.00651935 1e-05
0.00705578 -0.00663041 1e-05
0.00712846 -0.00674129 1e-05
0.00719878 -0.00684775 1e-05
0.00726948 -0.00695401 1e-05
0.00734039 -0.00706012 1e-05
0.00741154 -0.00716608 1e-05
0.00748299 -0.00727183 1e-05
0.00755597 -0.00737909 1e-05
0.00760141 -0.00744538 1e-05
0.00764697 -0.00751159 1e-05
0.00769265 -0.0075777 1e-05
0.00773847 -0.00764373 1e-05
0.00778313 -0.00770775 1e-05
0.00790091 -0.00787571 1e-05
0.00801946 -0.00804314 1e-05
0.00813878 -0.00821001 1e-05
0.0082591 -0.00837616 1e-05
0.00837203 -0.00853007 1e-05
0.00837974 -0.00854043 1e-05
0.00838745 -0.0085508 1e-05
0.00839517 -0.00856116 1e-05
0.00840289 -0.00857151 1e-05
0.00841063 -0.00858189 1e-05
0.00852161 -0.00873052 1e-05
0.00863341 -0.00887854 1e-05
0.00874605 -0.00902591 1e-05
0.00885955 -0.00917262 1e-05
0.00896551 -0.00930771 1e-05
0.00903013 -0.00938903 1e-05
0.00909501 -0.00947014 1e-05
0.00916016 -0.00955104 1e-05
0.00922561 -0.0096317 1e-05
0.00929323 -0.00971439 1e-05
0.00934731 -0.00977998 1e-05
0.00940157 -0.00984541 1e-05
0.00945604 -0.00991068 1e-05
0.0095107 -0.00997579 1e-05
0.0095636 -0.0100384 1e-05
[...]
POINT_DATA 12278
 FIELD attributes 1
U 3 12278 float
9.72339 	0.381311 	0 9.77871 	0.305049 	0 9.83405 	0.228765 	0 9.8894 	0.152465 	0 9.94476 	0.0761532 	0 10 	0 	0
10.0671 	0.375483 	0 10.0537 	0.300387 	0 10.0403 	0.225271 	0 10.0268 	0.150141 	0 10.0134 	0.0750008 	0 10 	0 	0
10.0364 	0.141572 	0 10.0291 	0.113304 	0 10.0218 	0.085089 	0 10.0145 	0.0569263 	0 10.0071 	0.0288164 	0 10 	0 	0
10.0137 	0.111519 	0 10.011 	0.0892151 	0 10.0082 	0.0669108 	0 10.0055 	0.0446061 	0 10.0027 	0.0223012 	0 10 	0 	0
10.0097 	0.0196534 	0 10.0078 	0.0157227 	0 10.0058 	0.011792 	0 10.0039 	0.00786133 	0 10.0019 	0.00393066 	0 10 	0 	0
10.0102 	-0.0372875 	0 10.0082 	-0.02983 	0 10.0061 	-0.0223725 	0 10.0041 	-0.014915 	0 10.002 	-0.00745741 	0 10 	0 	0
10.0174 	-0.148997 	0 10.0139 	-0.119197 	0 10.0105 	-0.0893967 	0 10.007 	-0.0595953 	0 10.0035 	-0.0297932 	0 10 	0 	0
10.0362 	-0.265901 	0 10.029 	-0.212721 	0 10.0217 	-0.159534 	0 10.0145 	-0.106342 	0 10.0072 	-0.053146 	0 10 	0 	0
10.0563 	-0.387167 	0 10.045 	-0.309734 	0 10.0338 	-0.23228 	0 10.0225 	-0.15481 	0 10.0112 	-0.0773281 	0 10 	0 	0
8.30133 	-0.114495 	0 8.4287 	-0.091596 	0 8.55659 	-0.0686962 	0 8.68498 	-0.0457957 	0 8.81385 	-0.0228949 	0 8.94315 	0 	0
9.72339 	0.381311 	0 9.5415 	0.555241 	0 9.39671 	0.663651 	0 9.26203 	0.754271 	0 9.2183 	0.780385 	0 8.95344 	1.27614 	0 8.70578 	1.91036 	0 8.48173 	2.72184 	0 8.46724 	2.67123 	0 8.47252 	2.45986 	0 8.50117 	2.35314 	0 8.52498 	2.2443 	0 8.51221 	2.16311 	0 8.42487 	2.14738 	0 8.30214 	2.12559 	0 8.30117 	1.9821 	0 8.28715 	1.83798 	0 8.21181 	1.72569 	0 8.035 	1.67507 	0 7.86306 	1.62575 	0 7.68323 	1.56759 	0 7.50177 	1.50875 	0 7.42793 	1.45839 	0 7.36148 	1.40771 	0 7.27865 	1.34671 	0 7.22249 	1.32376 	0 7.16614 	1.3007 	0 7.10958 	1.27753 	0 7.07928 	1.2544 	0 7.05291 	1.23121 	0 6.97394 	1.13838 	0 6.88841 	1.05226 	0 6.79883 	0.980328 	0 6.71191 	0.932082 	0 6.6228 	0.883658 	0 6.55089 	0.833774 	0 6.49229 	0.787587 	0 6.44246 	0.743854 	0 6.3887 	0.69909 	0 6.31694 	0.642265 	0 6.31477 	0.64017 	0 6.3132 	0.638345 	0 6.31172 	0.636559 	0 6.31023 	0.63477 	0 6.30868 	0.632931 	0 6.27132 	0.597061 	0 6.23151 	0.560862 	0 6.18922 	0.524331 	0 6.1444 	0.487462 	0 6.10943 	0.456251 	0 6.07602 	0.420969 	0 6.04571 	0.390994 	0 6.01701 	0.36455 	0 5.99443 	0.339599 	0 5.97316 	0.315194 	0 5.95246 	0.28906 	0 5.92972 	0.262717 	0 5.91348 	0.241656 	0 5.9034 	0.222651 	0 5.89182 	0.203584 	0 5.87917 	0.183517 	0 5.86498 	0.16335 	0 5.85627 	0.143786 	0 5.85337 	0.127397 	0 5.84919 	0.110981 	0 5.84297 	0.0943463 	0 5.8355 	0.0776698 	0 5.83341 	0.0589673 	0 5.83631 	0.043093 	0 5.83801 	0.0272193 	0 5.83718 	0.0119213 	0 5.83535 	-0.00344558 	0 5.83921 	-0.0225473 	0 5.84732 	-0.0400392 	0 5.85425 	-0.0574771 	0 5.85861 	-0.0735444 	0 5.86185 	-0.0895857 	0 5.87122 	-0.110974 	0 5.88468 	-0.132512 	0 5.89666 	-0.15398 	0 5.90651 	-0.173347 	0 5.91508 	-0.192644 	0 5.9294 	-0.218104 	0 5.94829 	-0.24706 	0 5.96528 	-0.275877 	0 5.98122 	-0.30211 	0 5.99552 	-0.328193 	0 6.01456 	-0.359808 	0 6.03866 	-0.400973 	0 6.06026 	-0.441894 	0 6.0826 	-0.480359 	0 6.10481 	-0.520982 	0 6.13011 	-0.56764 	0 6.15459 	-0.619713 	0 6.17872 	-0.679525 	0 6.2061 	-0.738521 	0 6.23745 	-0.811914 	0 6.26493 	-0.884771 	0 6.28857 	-0.95709 	0 6.30869 	-1.0298 	0 6.3087 	-1.02985 	0 6.30872 	-1.02991 	0 6.30873 	-1.02997 	0 6.30875 	-1.03002 	0 6.30876 	-1.03008 	0 6.33256 	-1.12727 	0 6.3511 	-1.22235 	0 6.36451 	-1.31537 	0 6.37527 	-1.41406 	0 6.38855 	-1.53826 	0 6.40636 	-1.66401 	0 6.41791 	-1.78766 	0 6.40579 	-1.93018 	2.62088e-20 6.36942 	-2.07914 	5.37283e-20 6.31927 	-2.23392 	8.12306e-20 6.31106 	-2.28437 	2.33888e-20 6.29888 	-2.3317 	5.84156e-21 6.28252 	-2.37571 	3.12676e-20 6.2656 	-2.41947 	5.73138e-20 6.25126 	-2.45516 	7.91896e-20 6.22487 	-2.55102 	1.78961e-19 6.19653 	-2.64632 	2.82895e-19 6.16625 	-2.74104 	3.90964e-19 6.12009 	-2.82219 	2.74332e-19 6.06354 	-2.90254 	6.2488e-20 5.98358 	-3.0222 	4.92716e-20 5.89842 	-3.13889 	3.61861e-20 5.80155 	-3.23674 	8.57041e-21 5.70028 	-3.33265 	-1.80456e-20 5.62539 	-3.39919 	-3.61786e-20 5.61624 	-3.40849 	-3.59706e-20 5.60706 	-3.41779 	-3.57478e-20 5.59781 	-3.42643 	-3.68984e-20 5.58842 	-3.43339 	-4.1705e-20 5.57889 	-3.44041 	-4.65573e-20 5.459 	-3.53662 	-2.82888e-20 5.33378 	-3.63087 	-9.44753e-21 5.20774 	-3.70782 	1.26489e-22 5.08152 	-3.76671 	-1.84415e-22 4.93254 	-3.83201 	7.56433e-23 4.93228 	-3.83215 	4.32869e-23 4.93202 	-3.8323 	1.093e-23 4.93179 	-3.8324 	1.9188e-23 4.93156 	-3.83247 	4.81642e-23 4.93133 	-3.83255 	7.71499e-23 4.80563 	-3.88189 	1.13048e-21 4.67583 	-3.92963 	2.48821e-21 4.54891 	-3.96613 	4.21606e-21 4.43128 	-3.98322 	6.3411e-21 4.33596 	-3.99559 	8.21176e-21 4.30562 	-4.00325 	1.3359e-20 4.27507 	-4.01084 	1.85443e-20 4.24976 	-4.01255 	9.22286e-21 4.22458 	-4.01391 	-8.28046e-22 4.19828 	-4.01527 	-1.1249e-20 4.12447 	-4.02258 	-6.36182e-20 4.04949 	-4.02936 	-1.15619e-19 3.97347 	-4.03547 	-1.65807e-19 3.9093 	-4.02994 	-1.01568e-19 3.8505 	-4.02456 	-4.30497e-20 3.77292 	-4.0267 	4.17613e-21 3.69544 	-4.02596 	4.19964e-20 3.62354 	-4.01384 	3.4198e-20 3.55057 	-4.00125 	2.66704e-20 3.46852 	-3.98675 	1.86427e-20 3.46519 	-3.98634 	1.92674e-20 3.46186 	-3.98592 	1.98921e-20 3.45852 	-3.9855 	2.0517e-20 3.45537 	-3.98478 	2.10415e-20 3.45231 	-3.98394 	2.15245e-20 3.38418 	-3.97192 	1.41262e-20 3.31399 	-3.95776 	7.41808e-21 3.24259 	-3.94291 	7.04553e-22 3.1708 	-3.91584 	6.16804e-21 3.10316 	-3.88907 	1.23513e-20 3.06107 	-3.87906 	3.4726e-20 3.01867 	-3.86767 	5.06276e-20 2.97707 	-3.8487 	2.3362e-20 2.93506 	-3.82951 	-3.84669e-21 2.88985 	-3.80881 	-3.27775e-20 2.87173 	-3.80226 	-3.8881e-20 2.85352 	-3.79565 	-4.49868e-20 2.83524 	-3.789 	-5.10948e-20 2.81704 	-3.77993 	-5.72882e-20 2.79912 	-3.77041 	-6.34003e-20 2.74572 	-3.74935 	-1.07125e-19 2.69149 	-3.7278 	-1.50971e-19 2.63669 	-3.69715 	-1.46194e-19 2.58227 	-3.65977 	-8.81879e-20 2.52975 	-3.62367 	-3.27095e-20 2.51282 	-3.61474 	2.06338e-21 2.49585 	-3.60561 	3.52338e-20 2.47997 	-3.59322 	2.99792e-20 2.46404 	-3.58077 	2.47598e-20 2.44761 	-3.56796 	1.94402e-20 2.41707 	-3.54888 	5.65526e-20 2.38628 	-3.5296 	9.35856e-20 2.35523 	-3.51013 	1.30537e-19 2.32524 	-3.48562 	1.03448e-19 2.29583 	-3.46117 	7.22999e-20 2.2589 	-3.43548 	4.2449e-20 2.22152 	-3.40947 	1.25658e-20 2.18695 	-3.37661 	-2.90121e-21 2.15214 	-3.3434 	-1.81068e-20 2.11501 	-3.30807 	-3.42119e-20 2.1113 	-3.30521 	-3.17894e-20 2.10759 	-3.30235 	-2.93697e-20 2.10388 	-3.29949 	-2.69529e-20 2.10038 	-3.29606 	-3.40007e-20 2.09689 	-3.29262 	-4.13453e-20 2.06018 	-3.26034 	-1.64584e-19 2.02445 	-3.226 	-2.56573e-19 1.9894 	-3.1899 	-2.99652e-19 1.95717 	-3.14901 	-1.93317e-19 1.9254 	-3.10878 	-8.89839e-20 1.9168 	-3.0991 	-7.78923e-20 1.90818 	-3.0894 	-6.67965e-20 1.90084 	-3.07855 	-5.65246e-20 1.8938 	-3.06745 	-4.64435e-20 1.88671 	-3.05625 	-3.62866e-20 1.86478 	-3.03087 	-1.17484e-20 1.84274 	-3.00539 	1.28112e-20 1.82115 	-2.97923 	2.99861e-20 1.80212 	-2.95026 	1.21516e-20 1.78323 	-2.92151 	-5.51933e-21 1.76984 	-2.90255 	-2.11375e-20 1.75642 	-2.88356 	-3.67439e-20 1.74518 	-2.86327 	-1.81123e-20 1.73487 	-2.84247 	1.47191e-20 1.72458 	-2.82163 	4.76569e-20 1.71225 	-2.80444 	1.21534e-20 1.6999 	-2.78722 	-2.32998e-20 1.68818 	-2.76953 	-3.49172e-20 1.67811 	-2.75068 	1.29614e-20 1.66807 	-2.73189 	6.07087e-20 1.65474 	-2.70769 	1.97468e-19 1.64144 	-2.68351 	3.34167e-19 1.63051 	-2.65857 	2.96362e-19 1.62136 	-2.63313 	1.33612e-19 1.61245 	-2.60809 	-2.78285e-20 1.60464 	-2.59473 	-5.73822e-20 1.59684 	-2.58138 	-8.6944e-20 1.58985 	-2.56767 	-8.97891e-20 1.58397 	-2.55351 	-5.62896e-20 1.57811 	-2.53936 	-2.27634e-20 1.56812 	-2.51484 	-2.46251e-20 1.55824 	-2.49042 	-2.65267e-20 1.5503 	-2.46588 	-1.93332e-20 1.54487 	-2.44118 	-5.03577e-22 1.5398 	-2.41738 	1.77451e-20 1.53315 	-2.40289 	2.97194e-20 1.52653 	-2.38842 	4.1689e-20 1.52123 	-2.37374 	4.57205e-20 1.51687 	-2.35891 	4.4097e-20 1.51255 	-2.34404 	4.24436e-20 1.50731 	-2.3243 	2.55665e-20 1.50221 	-2.30468 	8.66389e-21 1.49817 	-2.28527 	-3.13057e-21 1.49682 	-2.26622 	-1.11889e-21 1.49572 	-2.24806 	8.13649e-22 1.48876 	-2.22755 	7.62564e-20 1.48189 	-2.20713 	1.51926e-19 1.47763 	-2.18687 	1.25789e-19 1.47429 	-2.16677 	6.78075e-20 1.47107 	-2.14648 	8.99855e-21 1.46987 	-2.13594 	-2.33614e-20 1.46873 	-2.12545 	-5.56778e-20 1.46784 	-2.11513 	-8.20027e-20 1.46937 	-2.10624 	-3.64851e-20 1.47093 	-2.09768 	7.88489e-21 1.4638 	-2.06746 	4.60803e-21 1.45698 	-2.03753 	1.3134e-21 1.45621 	-2.01096 	-2.34586e-20 1.45677 	-1.98526 	-5.17349e-20 1.45938 	-1.96229 	-7.48657e-20 1.45891 	-1.96033 	-6.85245e-20 1.45844 	-1.95836 	-6.22378e-20 1.45839 	-1.95661 	-6.69843e-20 1.45834 	-1.95486 	-7.17285e-20 1.45829 	-1.9531 	-7.64831e-20 1.45641 	-1.92818 	-2.09506e-19 1.45491 	-1.90356 	-3.41794e-19 1.45414 	-1.87951 	-4.46556e-19 1.45839 	-1.85929 	-1.91178e-19 1.46275 	-1.84093 	4.70866e-20 1.4606 	-1.82602 	1.11176e-19 1.45857 	-1.81121 	1.75049e-19 1.45949 	-1.79853 	1.42343e-19 1.46054 	-1.78595 	1.09736e-19 1.46174 	-1.77312 	7.63109e-20 1.46267 	-1.76356 	6.73856e-20 1.46367 	-1.75406 	5.84823e-20 1.46476 	-1.74463 	4.96012e-20 1.46737 	-1.73645 	5.16735e-20 1.47004 	-1.72868 	5.41892e-20 1.46953 	-1.70542 	2.94993e-20 1.46936 	-1.68244 	4.74748e-21 1.47228 	-1.66188 	2.0234e-20 1.47688 	-1.64242 	4.53199e-20 1.48282 	-1.62531 	6.85506e-20 1.4828 	-1.62124 	6.7432e-20 1.48289 	-1.61724 	6.75961e-20 1.48347 	-1.61362 	7.51552e-20 1.48408 	-1.61001 	8.27124e-20 1.4847 	-1.60637 	9.03577e-20 1.48741 	-1.59063 	1.39733e-19 1.49038 	-1.57509 	1.88985e-19 1.49362 	-1.55975 	2.38112e-19 1.4988 	-1.54626 	1.68533e-19 1.50421 	-1.53408 	8.22554e-20 1.50587 	-1.51458 	1.55619e-19 1.50837 	-1.49582 	2.03722e-19 1.51299 	-1.479 	1.61869e-19 1.51795 	-1.46244 	1.20547e-19 1.52366 	-1.44494 	7.67607e-20 1.52368 	-1.44488 	7.65202e-20 1.52371 	-1.44481 	7.62798e-20 1.52373 	-1.44475 	7.60393e-20 1.52376 	-1.44469 	7.63589e-20 1.52379 	-1.44463 	7.69239e-20 1.52819 	-1.42761 	1.2655e-19 1.533 	-1.41086 	1.74593e-19 1.53817 	-1.39437 	2.22244e-19 1.54494 	-1.37965 	1.84244e-19 1.55204 	-1.36673 	1.17116e-19 1.55537 	-1.34913 	2.03143e-19 1.55958 	-1.33241 	2.39574e-19 1.56523 	-1.31727 	1.74831e-19 1.57121 	-1.30236 	1.10302e-19 1.57756 	-1.28883 	3.78301e-20 1.57779 	-1.28783 	3.75772e-20 1.57806 	-1.28688 	3.67432e-20 1.57838 	-1.28599 	3.51763e-20 1.57871 	-1.2851 	3.3609e-20 1.57903 	-1.28421 	3.20327e-20 1.58425 	-1.27027 	-1.3469e-20 1.58977 	-1.25652 	-5.88916e-20 1.59558 	-1.24297 	-1.04232e-19 1.60228 	-1.23063 	-8.93442e-20 1.60934 	-1.21991 	-3.00541e-20 1.61379 	-1.20439 	-7.5439e-20 1.61855 	-1.18907 	-1.21237e-19 1.62462 	-1.1757 	-1.03806e-19 1.63192 	-1.16304 	-6.0935e-20 1.63995 	-1.15166 	3.29684e-22 1.64224 	-1.14483 	2.88053e-20 1.64485 	-1.1385 	2.8294e-20 1.64771 	-1.13254 	7.12486e-21 1.65064 	-1.12662 	-1.39934e-20 1.65377 	-1.12044 	-3.61134e-20 1.65742 	-1.11361 	-6.8034e-20 1.66114 	-1.10684 	-9.98429e-20 1.66496 	-1.10012 	-1.3154e-19 1.669 	-1.09383 	-1.31099e-19 1.67324 	-1.08836 	-7.98812e-20 1.67839 	-1.07461 	-1.11918e-19 1.68441 	-1.06136 	-1.36121e-19 1.69175 	-1.04895 	-1.45555e-19 1.69993 	-1.03834 	-1.35226e-19 1.70802 	-1.02838 	-1.25238e-19 1.71379 	-1.01487 	-2.75538e-19 1.72006 	-1.00217 	-3.50311e-19 1.72694 	-0.990732 	-2.96239e-19 1.73409 	-0.979452 	-2.42675e-19 1.74239 	-0.969376 	-1.16071e-19 1.74449 	-0.965037 	-8.2531e-20 1.74674 	-0.961148 	-8.47474e-20 1.74905 	-0.957395 	-9.66187e-20 1.75139 	-0.953658 	-1.08442e-19 1.75386 	-0.949778 	-1.20724e-19 1.75872 	-0.942421 	-1.24333e-19 1.76371 	-0.935132 	-1.27915e-19 1.7688 	-0.927909 	-1.3147e-19 1.77405 	-0.920976 	-1.2966e-19 1.77938 	-0.91521 	-1.0527e-19 1.78543 	-0.903279 	-1.3288e-19 1.79249 	-0.891922 	-1.44785e-19 1.80042 	-0.881069 	-1.43557e-19 1.80874 	-0.872001 	-1.02968e-19 1.81702 	-0.863471 	-6.09426e-20 1.82364 	-0.851779 	-1.64901e-19 1.83051 	-0.840254 	-2.66967e-19 1.83767 	-0.830561 	-2.25653e-19 1.84589 	-0.821455 	-1.27944e-19 1.85457 	-0.81301 	4.39853e-23 1.86118 	-0.802454 	1.42253e-22 1.86796 	-0.793532 	1.07644e-22 1.87493 	-0.784752 	6.90135e-23 1.88209 	-0.776073 	2.99539e-23 1.89046 	-0.766305 	-1.50068e-23 1.89084 	-0.765888 	7.11941e-22 1.89122 	-0.76547 	1.43841e-21 1.8916 	-0.765053 	2.1644e-21 1.89199 	-0.764636 	2.88992e-21 1.89236 	-0.764301 	4.23749e-22 1.89984 	-0.754847 	-2.52872e-20 1.90763 	-0.745563 	-4.71564e-20 1.91564 	-0.736391 	-6.88473e-20 1.92388 	-0.727341 	-8.98837e-20 1.93178 	-0.720354 	-3.11996e-20 1.93867 	-0.710397 	-2.11291e-20 1.94624 	-0.700881 	-1.39284e-20 1.95462 	-0.691897 	-1.04151e-20 1.96279 	-0.684625 	-1.59854e-20 1.97093 	-0.677757 	-2.24505e-20 1.97824 	-0.668051 	5.39406e-20 1.98577 	-0.658446 	1.30444e-19 1.9932 	-0.650358 	1.32358e-19 2.00152 	-0.643412 	6.57221e-20 2.00986 	-0.636669 	1.63224e-22 2.01757 	-0.627216 	9.70687e-23 2.0251 	-0.61884 	-1.11816e-20 2.03252 	-0.611299 	-3.10271e-20 2.04012 	-0.603837 	-5.0849e-20 2.04859 	-0.597198 	-6.38804e-20 2.0555 	-0.589494 	-1.06447e-19 2.06202 	-0.582984 	-1.10002e-19 2.06869 	-0.576533 	-1.13617e-19 2.07549 	-0.570138 	-1.17291e-19 2.08345 	-0.562858 	-1.21578e-19 2.08422 	-0.562192 	-1.22764e-19 2.08498 	-0.561526 	-1.2395e-19 2.08575 	-0.56086 	-1.25135e-19 2.08651 	-0.560196 	-1.2632e-19 2.08722 	-0.559656 	-1.22303e-19 2.09468 	-0.552355 	-9.43277e-20 2.10237 	-0.545197 	-6.50845e-20 2.11024 	-0.538109 	-3.58792e-20 2.11828 	-0.531089 	-6.71188e-21 2.12555 	-0.525599 	1.7922e-22 2.1327 	-0.517833 	6.74858e-20 2.14053 	-0.510851 	8.63966e-20 2.14854 	-0.503959 	1.03535e-19 2.15619 	-0.497882 	8.43332e-20 2.16321 	-0.492964 	1.49061e-20 2.17059 	-0.485441 	-5.50335e-20 2.1782 	-0.478067 	-1.18735e-19 2.18627 	-0.471426 	-1.35e-19 2.19319 	-0.466561 	-6.72695e-20 2.20017 	-0.46178 	-7.24989e-23 2.20775 	-0.4545 	-3.95974e-23 2.21551 	-0.447279 	-6.86819e-24 2.22263 	-0.441415 	0 2.22947 	-0.436697 	0 2.23638 	-0.432054 	0 2.24413 	-0.425015 	0 2.2518 	-0.418297 	0 2.2583 	-0.413062 	0 2.265 	-0.408286 	-1.01502e-20 2.2718 	-0.403781 	-2.5172e-20 2.27969 	-0.396982 	-6.23642e-21 2.2866 	-0.391345 	-6.35165e-21 2.2931 	-0.386294 	-1.58175e-20 2.29972 	-0.381308 	-2.67429e-20 2.30639 	-0.376941 	-6.64842e-20 2.3141 	-0.370628 	-2.84745e-20 2.32045 	-0.365726 	-3.02639e-20 2.32692 	-0.360858 	-3.20251e-20 2.33351 	-0.356024 	-3.37583e-20 2.3401 	-0.351506 	-4.64703e-20 2.34634 	-0.346643 	-3.69124e-20 2.35195 	-0.342427 	-3.83633e-20 2.35766 	-0.338235 	-3.97928e-20 2.36345 	-0.334068 	-4.12009e-20 2.3703 	-0.329247 	-4.28146e-20 2.37083 	-0.328892 	-4.26965e-20 2.37135 	-0.328537 	-4.25786e-20 2.37187 	-0.328182 	-4.24609e-20 2.37239 	-0.327827 	-4.23433e-20 2.37285 	-0.327527 	-4.25205e-20 2.37901 	-0.322937 	-4.92086e-20 2.38527 	-0.318401 	-5.37577e-20 2.39165 	-0.313893 	-5.82299e-20 2.39813 	-0.309413 	-6.26256e-20 2.40377 	-0.305685 	-3.89666e-20 2.4101 	-0.300969 	-7.51612e-20 2.41626 	-0.296609 	-8.72943e-20 2.42253 	-0.292274 	-9.93686e-20 2.4289 	-0.287964 	-1.11385e-19 2.43354 	-0.284977 	-7.13063e-20 2.44012 	-0.280193 	-1.18583e-19 2.44616 	-0.276006 	-1.21109e-19 2.4523 	-0.271842 	-1.23589e-19 2.45819 	-0.267937 	-1.19e-19 2.46216 	-0.265373 	-7.53459e-20 2.46877 	-0.260756 	-1.17874e-19 2.47494 	-0.256551 	-1.28011e-19 2.48094 	-0.252556 	-1.22406e-19 2.48588 	-0.249294 	-9.48002e-20 2.48961 	-0.246835 	-4.31991e-20 2.4962 	-0.242422 	4.31575e-20 2.50259 	-0.238202 	1.03853e-19 2.50843 	-0.234372 	1.09349e-19 2.51241 	-0.231683 	5.03683e-20 2.5159 	-0.229328 	-2.66968e-20 2.52244 	-0.225114 	-1.75935e-20 2.52908 	-0.220918 	-8.50002e-21 2.5346 	-0.217334 	8.66909e-21 2.53778 	-0.215066 	2.59573e-20 2.54101 	-0.212812 	4.32203e-20 2.54749 	-0.208793 	-4.33233e-20 2.55407 	-0.204791 	-1.2988e-19 2.55906 	-0.20157 	-1.41244e-19 2.56198 	-0.199403 	-7.10834e-20 2.56495 	-0.197247 	-1.02107e-21 2.57135 	-0.19342 	-1.07476e-22 2.57786 	-0.189607 	7.85319e-22 2.58236 	-0.186721 	-1.56708e-20 2.58502 	-0.184653 	-4.94171e-20 2.58773 	-0.182594 	-8.31385e-20 2.59404 	-0.178953 	-4.76831e-20 2.60045 	-0.175326 	-1.22434e-20 2.60452 	-0.17275 	-8.54657e-21 2.60691 	-0.170777 	-2.593e-20 2.60935 	-0.168813 	-4.32978e-20 2.61557 	-0.165355 	-2.59873e-20 2.62187 	-0.161911 	-8.70958e-21 2.62548 	-0.159633 	-9.45401e-21 2.62767 	-0.157737 	-2.60534e-20 2.62984 	-0.155865 	-4.33787e-20 2.63595 	-0.152585 	-1.64885e-19 2.64159 	-0.14953 	-2.61794e-19 2.64504 	-0.147371 	-2.57103e-19 2.64731 	-0.145493 	-1.64746e-19 2.64921 	-0.143711 	-4.33592e-20 2.6552 	-0.140605 	-2.59814e-20 2.66021 	-0.137897 	-8.62105e-21 2.66349 	-0.135853 	8.70883e-21 2.66584 	-0.134007 	2.13076e-20 2.66748 	-0.132314 	3.02496e-20 2.67335 	-0.129376 	9.13176e-20 2.67774 	-0.126978 	1.18692e-19 2.68085 	-0.125046 	1.17019e-19 2.68329 	-0.123243 	9.21094e-20 2.68467 	-0.121636 	3.16735e-20 2.69041 	-0.118862 	2.32316e-20 2.69421 	-0.116739 	1.48059e-20 2.69716 	-0.114915 	6.3853e-21 2.69969 	-0.113166 	0 2.70081 	-0.111643 	0 2.70642 	-0.109027 	0 2.70967 	-0.107148 	1.47188e-20 2.71245 	-0.105429 	3.25491e-20 2.71507 	-0.103741 	5.03643e-20 2.71594 	-0.1023 	6.81062e-20 2.72141 	-0.0998372 	1.90102e-19 2.72413 	-0.0981746 	1.93622e-19 2.72675 	-0.0965563 	1.91095e-19 2.72941 	-0.0949411 	1.88618e-19 2.73008 	-0.0935737 	7.02129e-20 2.73522 	-0.0913108 	5.31989e-20 2.73763 	-0.0897871 	3.6238e-20 2.74009 	-0.0882662 	1.92689e-20 2.74258 	-0.0867481 	2.29175e-21 2.74326 	-0.0854321 	1.46997e-20 2.74795 	-0.083386 	-4.34157e-24 2.75021 	-0.0819565 	-2.98874e-23 2.75251 	-0.0805295 	-5.54231e-23 2.75484 	-0.0791049 	-8.09487e-23 2.75553 	-0.0778446 	6.38976e-21 2.75979 	-0.0759934 	-5.08116e-20 2.7619 	-0.0746547 	-4.95124e-20 2.76404 	-0.073318 	-4.82407e-20 2.76622 	-0.0719834 	-4.69964e-20 2.76691 	-0.0707817 	-5.64435e-21 2.77078 	-0.0691061 	8.55948e-23 2.77273 	-0.0678544 	6.04886e-23 2.77473 	-0.0666045 	3.53728e-23 2.77675 	-0.0653563 	1.02472e-23 2.77744 	-0.0642154 	0 2.78094 	-0.0626977 	1.11892e-20 2.78276 	-0.0615295 	3.75125e-20 2.7846 	-0.0603628 	6.3827e-20 2.78648 	-0.0591976 	9.01329e-20 2.78716 	-0.0581186 	1.07495e-19 2.79032 	-0.0567432 	1.73102e-19 2.792 	-0.0556549 	1.72023e-19 2.79371 	-0.0545678 	1.70973e-19 2.79544 	-0.0534821 	1.6995e-19 2.7961 	-0.0524655 	1.02484e-19 2.79896 	-0.0512183 	8.75801e-20 2.8005 	-0.0502063 	5.31467e-20 2.80208 	-0.0491955 	1.87078e-20 2.80368 	-0.0481857 	-1.57365e-20 2.80431 	-0.0472313 	-4.66903e-20 2.80689 	-0.0460998 	-9.02141e-20 2.8083 	-0.0451608 	-8.90062e-20 2.80975 	-0.0442227 	-8.7832e-20 2.81122 	-0.0432854 	-8.66917e-20 2.81183 	-0.0423925 	-3.70496e-20 2.81414 	-0.0413655 	-4.95374e-20 2.81544 	-0.0404959 	-3.17167e-20 2.81676 	-0.0396271 	-1.39139e-20 2.81811 	-0.038759 	3.87101e-21 2.81868 	-0.0379263 	4.31038e-20 2.82076 	-0.036994 	4.98614e-20 2.82194 	-0.0361904 	6.73323e-20 2.82315 	-0.0353874 	8.47951e-20 2.82438 	-0.0345851 	1.0225e-19 2.82491 	-0.0338112 	1.22065e-19 2.82679 	-0.0329647 	1.4623e-19 2.82786 	-0.0322238 	1.37008e-19 2.82895 	-0.0314834 	1.27806e-19 2.83007 	-0.0307435 	1.18626e-19 2.83056 	-0.0300265 	8.1688e-20 2.83224 	-0.0292579 	5.80645e-20 2.83321 	-0.0285763 	3.23164e-20 2.83421 	-0.0278952 	6.56639e-21 2.83522 	-0.0272146 	-1.91854e-20 2.83565 	-0.0265525 	-4.10462e-20 2.83717 	-0.0258547 	-5.61677e-20 2.83805 	-0.0252293 	-3.83937e-20 2.83894 	-0.0246043 	-2.06459e-20 2.83985 	-0.0239796 	-2.92404e-21 2.84023 	-0.0233702 	4.84834e-20 2.84161 	-0.022737 	1.02325e-19 2.84239 	-0.0221646 	1.10006e-19 2.8432 	-0.0215926 	1.1773e-19 2.84401 	-0.0210208 	1.25497e-19 2.84433 	-0.0204616 	8.8622e-20 2.84558 	-0.0198874 	7.17982e-20 2.84628 	-0.019365 	6.32545e-20 2.847 	-0.0188428 	5.47067e-20 2.84773 	-0.0183208 	4.61548e-20 2.84798 	-0.0178095 	3.76055e-20 2.84913 	-0.0172893 	1.44047e-20 2.84975 	-0.0168138 	1.47523e-20 2.85038 	-0.0163385 	1.50773e-20 2.85103 	-0.0158634 	1.53798e-20 2.85122 	-0.0153973 	4.14742e-20 2.85227 	-0.014926