# vtk DataFile Version 2.0
track0
ASCII
DATASET POLYDATA
POINTS 12278 float
-0.0205 0.001 1e-05
-0.02052 0.000999216 1e-05
-0.02054 0.000998592 1e-05
-0.02056 0.000998126 1e-05
-0.02058 0.000997818 1e-05
-0.0206 0.000997665 1e-05
-0.0205 0.00367778 1e-05
-0.02052 0.00367703 1e-05
-0.02054 0.00367643 1e-05
-0.02056 0.00367599 1e-05
-0.02058 0.00367569 1e-05
-0.0206 0.00367554 1e-05
-0.0205 0.00635556 1e-05
-0.02052 0.00635527 1e-05
-0.02054 0.00635505 1e-05
-0.02056 0.00635488 1e-05
-0.02058 0.00635476 1e-05
-0.0206 0.00635471 1e-05
-0.0205 0.00903333 1e-05
-0.02052 0.00903311 1e-05
-0.02054 0.00903293 1e-05
-0.02056 0.0090328 1e-05
-0.02058 0.00903271 1e-05
-0.0206 0.00903266 1e-05
-0.0205 0.0117111 1e-05
-0.02052 0.0117111 1e-05
-0.02054 0.011711 1e-05
-0.02056 0.011711 1e-05
-0.02058 0.011711 1e-05
-0.0206 0.011711 1e-05
-0.0205 0.0143889 1e-05
-0.02052 0.014389 1e-05
-0.02054 0.014389 1e-05
-0.02056 0.0143891 1e-05
-0.02058 0.0143891 1e-05
-0.0206 0.0143891 1e-05
-0.0205 0.0170667 1e-05
-0.02052 0.017067 1e-05
-0.02054 0.0170672 1e-05
-0.02056 0.0170674 1e-05
-0.02058 0.0170675 1e-05
-0.0206 0.0170676 1e-05
-0.0205 0.0197444 1e-05
-0.02052 0.019745 1e-05
-0.02054 0.0197454 1e-05
-0.02056 0.0197457 1e-05
-0.02058 0.0197459 1e-05
-0.0206 0.019746 1e-05
-0.0205 0.0224222 1e-05
-0.02052 0.022423 1e-05
-0.02054 0.0224236 1e-05
-0.02056 0.0224241 1e-05
-0.02058 0.0224244 1e-05
-0.0206 0.0224245 1e-05
-0.0205 0.0251 1e-05
-0.02052 0.0251003 1e-05
-0.02054 0.0251005 1e-05
-0.02056 0.0251007 1e-05
-0.02058 0.0251008 1e-05
-0.0206 0.0251008 1e-05
-0.0205 0.001 1e-05
-0.0203632 0.00100536 1e-05
-0.0202266 0.00101331 1e-05
-0.0200901 0.00102296 1e-05
-0.0200427 0.00102682 1e-05
-0.0198376 0.00104418 1e-05
-0.0196338 0.00107322 1e-05
-0.0194327 0.00111734 1e-05
-0.0192368 0.00118024 1e-05
-0.0190172 0.00124951 1e-05
-0.0189002 0.00128348 1e-05
-0.0187827 0.00131598 1e-05
-0.0186649 0.001347 1e-05
-0.0185469 0.001377 1e-05
-0.0183807 0.00141936 1e-05
-0.0182041 0.00146458 1e-05
-0.0180267 0.00150692 1e-05
-0.0178487 0.0015464 1e-05
-0.0176703 0.00158389 1e-05
-0.0174976 0.00161991 1e-05
-0.0172846 0.00166394 1e-05
-0.0170715 0.00170741 1e-05
-0.0168583 0.00175029 1e-05
-0.0166449 0.00179219 1e-05
-0.0163945 0.00184007 1e-05
-0.0163234 0.00185324 1e-05
-0.0162522 0.00186629 1e-05
-0.016181 0.00187921 1e-05
-0.0161097 0.00189201 1e-05
-0.0160387 0.0019046 1e-05
-0.0157586 0.0019535 1e-05
-0.0154779 0.00199931 1e-05
-0.0151968 0.00204225 1e-05
-0.0149154 0.00208283 1e-05
-0.0146381 0.00212134 1e-05
-0.0143838 0.00215527 1e-05
-0.0141293 0.00218766 1e-05
-0.0138747 0.00221855 1e-05
-0.0136198 0.00224797 1e-05
-0.0132934 0.00228369 1e-05
-0.0132791 0.00228515 1e-05
-0.0132648 0.0022866 1e-05
-0.0132504 0.00228805 1e-05
-0.0132361 0.0022895 1e-05
-0.0132214 0.00229098 1e-05
-0.0129776 0.00231543 1e-05
-0.0127337 0.00233865 1e-05
-0.0124897 0.00236061 1e-05
-0.0122456 0.0023813 1e-05
-0.0120025 0.00240058 1e-05
-0.0117547 0.00241909 1e-05
-0.0115067 0.00243627 1e-05
-0.0112587 0.00245231 1e-05
-0.0110106 0.00246734 1e-05
-0.0107632 0.00248136 1e-05
-0.0105252 0.00249391 1e-05
-0.0102872 0.00250547 1e-05
-0.0100491 0.00251602 1e-05
-0.00981105 0.00252575 1e-05
-0.00957337 0.00253472 1e-05
-0.00934491 0.00254261 1e-05
-0.00911643 0.00254974 1e-05
-0.00888792 0.00255611 1e-05
-0.0086594 0.00256172 1e-05
-0.00843108 0.00256669 1e-05
-0.00821175 0.00257085 1e-05
-0.00799241 0.00257439 1e-05
-0.00777306 0.00257731 1e-05
-0.0075537 0.00257953 1e-05
-0.00733443 0.00258115 1e-05
-0.00712387 0.00258213 1e-05
-0.0069133 0.00258256 1e-05
-0.00670273 0.00258244 1e-05
-0.00649216 0.00258163 1e-05
-0.0062816 0.00258019 1e-05
-0.00607944 0.0025782 1e-05
-0.0058773 0.00257566 1e-05
-0.00567516 0.00257258 1e-05
-0.00547303 0.00256876 1e-05
-0.00527083 0.0025642 1e-05
-0.00507675 0.00255914 1e-05
-0.00488269 0.00255344 1e-05
-0.00468865 0.00254712 1e-05
-0.00449464 0.00253999 1e-05
-0.00430044 0.00253192 1e-05
-0.00411412 0.00252331 1e-05
-0.00392784 0.0025139 1e-05
-0.00374159 0.00250371 1e-05
-0.0035554 0.00249257 1e-05
-0.00336883 0.00248018 1e-05
-0.00318995 0.00246714 1e-05
-0.00301115 0.00245302 1e-05
-0.00283245 0.00243777 1e-05
-0.00265386 0.00242123 1e-05
-0.00247443 0.00240317 1e-05
-0.0023027 0.00238428 1e-05
-0.00213114 0.00236387 1e-05
-0.00195982 0.00234157 1e-05
-0.00178875 0.00231741 1e-05
-0.00161577 0.00229109 1e-05
-0.00161564 0.00229107 1e-05
-0.0016155 0.00229104 1e-05
-0.00161537 0.00229102 1e-05
-0.00161523 0.002291 1e-05
-0.0016151 0.00229098 1e-05
-0.00145036 0.00226408 1e-05
-0.00128603 0.00223482 1e-05
-0.00112212 0.00220328 1e-05
-0.000958655 0.00216949 1e-05
-0.000791418 0.0021324 1e-05
-0.000633135 0.00209429 1e-05
-0.000475556 0.00205336 1e-05
-0.000318719 0.00200968 1e-05
-0.000162834 0.00196271 1e-05
0 0.00190956 1e-05
3.73631e-05 0.00189635 1e-05
7.46262e-05 0.00188286 1e-05
0.00011179 0.0018691 1e-05
0.000148858 0.00185509 1e-05
0.000179182 0.00184338 1e-05
0.000249023 0.00181595 1e-05
0.000318453 0.00178749 1e-05
0.000387459 0.00175802 1e-05
0.000456025 0.00172754 1e-05
0.000528387 0.00169418 1e-05
0.000634886 0.0016432 1e-05
0.000740278 0.00158997 1e-05
0.00084451 0.0015345 1e-05
0.00094762 0.00147698 1e-05
0.00101997 0.00143469 1e-05
0.00102815 0.00142974 1e-05
0.00103632 0.00142478 1e-05
0.00104449 0.0014198 1e-05
0.00105264 0.00141481 1e-05
0.00106088 0.00140975 1e-05
0.00116821 0.00134357 1e-05
0.00127404 0.00127501 1e-05
0.00137827 0.00120406 1e-05
0.00148099 0.00113093 1e-05
0.00159677 0.00104511 1e-05
0.00159692 0.00104499 1e-05
0.00159707 0.00104488 1e-05
0.00159722 0.00104476 1e-05
0.00159737 0.00104464 1e-05
0.00159752 0.00104453 1e-05
0.0016922 0.000970947 1e-05
0.00178548 0.000895599 1e-05
0.00187728 0.000818452 1e-05
0.00196766 0.00073965 1e-05
0.00203806 0.000676368 1e-05
0.00205812 0.000657889 1e-05
0.00207809 0.000639322 1e-05
0.00209797 0.000620666 1e-05
0.0021178 0.000601946 1e-05
0.00213833 0.000582445 1e-05
0.00219148 0.000531614 1e-05
0.00224413 0.000480267 1e-05
0.00229626 0.000428395 1e-05
0.00234786 0.000375992 1e-05
0.00239417 0.000328255 1e-05
0.002452 0.000267807 1e-05
0.0025092 0.000206759 1e-05
0.00256577 0.000145128 1e-05
0.00262183 8.30314e-05 1e-05
0.00268334 1.37245e-05 1e-05
0.00268573 1.09796e-05 1e-05
0.00268811 8.2337e-06 1e-05
0.0026905 5.48674e-06 1e-05
0.00269288 2.73876e-06 1e-05
0.00269526 0 1e-05
0.00275916 -7.37368e-05 1e-05
0.00282243 -0.000148005 1e-05
0.00288507 -0.000222813 1e-05
0.00294705 -0.000298173 1e-05
0.00300412 -0.000368654 1e-05
0.00304981 -0.00042592 1e-05
0.0030952 -0.000483431 1e-05
0.00314027 -0.000541184 1e-05
0.0031851 -0.000599131 1e-05
0.00323259 -0.000661091 1e-05
0.00325065 -0.000684891 1e-05
0.00326865 -0.000708732 1e-05
0.00328661 -0.000732612 1e-05
0.00330451 -0.000756533 1e-05
0.00332206 -0.00078009 1e-05
0.0033902 -0.000871877 1e-05
0.00345774 -0.000964107 1e-05
0.00352466 -0.00105679 1e-05
0.00359104 -0.00114986 1e-05
0.0036539 -0.00123896 1e-05
0.00368034 -0.00127683 1e-05
0.00370671 -0.00131476 1e-05
0.003733 -0.00135274 1e-05
0.00375924 -0.00139076 1e-05
0.00378611 -0.00142981 1e-05
0.0038301 -0.00149394 1e-05
0.00387388 -0.00155822 1e-05
0.00391744 -0.00162265 1e-05
0.00396077 -0.00168723 1e-05
0.00400293 -0.00175044 1e-05
0.00407113 -0.00185326 1e-05
0.00413892 -0.00195635 1e-05
0.00420627 -0.00205972 1e-05
0.00427334 -0.00216328 1e-05
0.00434393 -0.00227295 1e-05
0.00434999 -0.00228242 1e-05
0.00435604 -0.00229189 1e-05
0.00436208 -0.00230137 1e-05
0.00436813 -0.00231085 1e-05
0.00437415 -0.0023203 1e-05
0.004455 -0.00244725 1e-05
0.00453539 -0.00257449 1e-05
0.00461539 -0.00270197 1e-05
0.00469503 -0.00282968 1e-05
0.0047729 -0.00295498 1e-05
0.00479954 -0.00299799 1e-05
0.00482615 -0.00304102 1e-05
0.00485274 -0.00308406 1e-05
0.00487931 -0.00312711 1e-05
0.00490609 -0.00317049 1e-05
0.00496673 -0.00326872 1e-05
0.00502721 -0.00336704 1e-05
0.00508755 -0.00346545 1e-05
0.00514776 -0.00356394 1e-05
0.00520741 -0.00366161 1e-05
0.00526045 -0.00374852 1e-05
0.00531345 -0.00383545 1e-05
0.00536641 -0.00392241 1e-05
0.0054194 -0.00400935 1e-05
0.00547262 -0.00409656 1e-05
0.00551559 -0.00416687 1e-05
0.00555853 -0.0042372 1e-05
0.00560143 -0.00430755 1e-05
0.00564432 -0.00437792 1e-05
0.00568714 -0.00444811 1e-05
0.00575842 -0.00456487 1e-05
0.00582975 -0.0046816 1e-05
0.00590113 -0.0047983 1e-05
0.00597264 -0.00491492 1e-05
0.00604356 -0.0050301 1e-05
0.0060798 -0.00508873 1e-05
0.00611605 -0.00514736 1e-05
0.00615231 -0.00520598 1e-05
0.00618859 -0.00526459 1e-05
0.00622498 -0.00532326 1e-05
0.00630377 -0.00545005 1e-05
0.00638275 -0.00557673 1e-05
0.00646193 -0.00570329 1e-05
0.00654138 -0.00582968 1e-05
0.00661893 -0.00595224 1e-05
0.00666281 -0.00602113 1e-05
0.00670673 -0.00608999 1e-05
0.00675072 -0.00615881 1e-05
0.00679478 -0.00622758 1e-05
0.00683923 -0.00629671 1e-05
0.00691114 -0.00640817 1e-05
0.0069833 -0.00651946 1e-05
0.00705572 -0.00663059 1e-05
0.00712844 -0.00674152 1e-05
0.00719878 -0.00684804 1e-05
0.00726943 -0.00695424 1e-05
0.0073403 -0.00706029 1e-05
0.00741139 -0.00716619 1e-05
0.00748279 -0.00727188 1e-05
0.00755572 -0.00737909 1e-05
0.00760121 -0.00744546 1e-05
0.00764682 -0.00751175 1e-05
0.00769255 -0.00757795 1e-05
0.00773842 -0.00764406 1e-05
0.00778313 -0.00770816 1e-05
0.00790091 -0.00787614 1e-05
0.00801946 -0.00804359 1e-05
0.00813878 -0.00821049 1e-05
0.0082591 -0.00837667 1e-05
0.00837203 -0.00853059 1e-05
0.00837966 -0.00854085 1e-05
0.0083873 -0.00855111 1e-05
0.00839493 -0.00856136 1e-05
0.00840257 -0.00857161 1e-05
0.00841024 -0.00858189 1e-05
0.00852129 -0.00873065 1e-05
0.00863317 -0.00887879 1e-05
0.00874589 -0.0090263 1e-05
0.00885948 -0.00917314 1e-05
0.00896551 -0.00930833 1e-05
0.00903002 -0.00938953 1e-05
0.00909479 -0.00947052 1e-05
0.00915983 -0.00955129 1e-05
0.00922517 -0.00963182 1e-05
0.00929268 -0.00971438 1e-05
0.00934686 -0.00978012 1e-05
0.00940124 -0.0098457 1e-05
0.00945582 -0.00991111 1e-05
0.00951059 -0.00997636 1e-05
0.0095636 -0.0100391 1e-05
[...]
POINT_DATA 12278
 FIELD attributes 2
p 1 12278 float
177015 177097 177169 177232 177286 177331
108948 108966 108983 108997 109009 109019
87755 87764.5 87773.9 87783 87792 87800.4
79937.2 79943.5 79949.8 79955.9 79961.9 79967.9
77146.3 77155.6 77164.8 77174 77183.2 77192.4
77563.7 77577.3 77590.9 77604.4 77618 77631.5
81096.9 81109.3 81121.6 81133.7 81145.6 81157.3
90923.4 90943.1 90962.1 90980.4 90998 91014.9
117355 117388 117418 117447 117473 117496
215474 215284 215093 214898 214702 214504
177015 173410 169082 164504 162838 158906 155524 152873 144708 134666 129224 123795 119857 119246 118394 112349 106449 102328 101432 100565 99583.3 98601 97174.4 95706.1 93990.5 93624 93257 92889.4 92408.4 91910.7 89991.2 88187.3 86673.3 85885.9 85109.2 84423.4 83758.6 83108.8 82457.1 81623.1 81588.2 81559.3 81531.3 81503.2 81474.4 80941.6 80409.3 79877.5 79346.2 78921.1 78494.9 78085.7 77688.1 77312.4 76946.5 76596.5 76246.2 75922.5 75621 75320 75030.5 74740.8 74462.3 74199.5 73936.9 73683.2 73429.5 73179.4 72943.2 72707.2 72478.3 72249.4 72018.9 71799.4 71580.2 71366.5 71153 70934.4 70723.5 70512.8 70305.7 70098.8 69885.8 69673.4 69461.2 69249.3 69037.8 68822.7 68594.6 68367 68134.1 67898.5 67654.4 67401.7 67135.8 66855.6 66541.8 66229.6 65919 65606 65605.7 65605.4 65605 65604.7 65604.3 65213.1 64827.7 64447.9 64049.9 63569.9 63054.4 62544.7 61843.7 61070.7 60257.5 60009.2 59771.1 59543.9 59317.3 59131.9 58575.2 58016.3 57455.3 56982.1 56514 55909.4 55306.7 54766.9 54225.9 53841 53783 53724.9 53669.7 53622.1 53574 53020.8 52460.5 51942.5 51470.2 50924.5 50923.5 50922.5 50921.7 50921 50920.3 50493.1 50058.4 49655.9 49320.4 49051.4 48952.2 48852.6 48781.8 48712.2 48639.6 48451.1 48260.3 48067.6 47923.2 47791.1 47618.4 47449.8 47310.2 47168.5 47009.2 47002.8 46996.3 46989.9 46984.1 46978.5 46873.2 46761 46646.2 46532.9 46426 46390.4 46353.7 46314.1 46273.8 46230 46209.9 46189.6 46169.1 46148 46126.8 46101.5 46074.7 46037.7 45995.4 45953.8 45956.3 45958.4 45957.7 45956.9 45955.9 45944.6 45932.9 45920.7 45905.7 45890.5 45900.3 45909.4 45913.9 45917.9 45921.6 45920.7 45919.9 45919 45918 45916.9 45930.4 45944 45956.7 45967.4 45977.7 45988 45998.2 46008 46017.7 46027.5 46039 46050.4 46061.6 46072.7 46083.6 46102 46120.4 46138.9 46157.4 46176 46184.6 46193.1 46201.8 46210.9 46220 46242.7 46265.4 46288.8 46312.7 46336.4 46343.8 46351.2 46359 46367.2 46375.5 46398.7 46422 46446.1 46471.4 46496.1 46505 46514 46523.6 46533.8 46544.1 46563.8 46583.5 46603.9 46625.8 46647 46660.9 46674.8 46690.5 46706.8 46723.5 46735 46746.6 46758.3 46771 46783.4 46805.3 46827.5 46852.9 46879.1 46905 46906.1 46907.2 46908.6 46910 46911.3 46932.5 46953.9 46975.7 46999.6 47022 47031.5 47041.1 47052 47063.1 47074.5 47084.2 47094 47103.7 47114.2 47124.3 47141.5 47158.9 47177.8 47197.6 47217 47219.5 47222.2 47225.1 47228 47231 47245.3 47259.8 47274.3 47290 47304.9 47318.6 47332.8 47348.2 47363.8 47380.7 47380.8 47380.9 47380.9 47381 47381.1 47395.7 47410.5 47425.3 47441.2 47456.4 47468.4 47481 47494.6 47508.3 47521.4 47522 47522.6 47523.3 47524 47524.7 47536.4 47548.3 47560.2 47572.8 47585.3 47595.6 47606 47617.6 47629.8 47641.8 47645.8 47650.2 47654.8 47659.5 47664.3 47670.2 47676.1 47682 47688.1 47694.5 47703.3 47712.4 47722.2 47733.1 47743.5 47751.1 47759.2 47768.1 47777.1 47786.2 47788.3 47790.8 47793.3 47795.8 47798.4 47803.8 47809.2 47814.6 47820.1 47826.2 47832.4 47838.9 47845.8 47853.9 47861.7 47866.8 47871.8 47878.1 47884.7 47891.4 47895 47899.7 47904.3 47909 47914.2 47914.5 47914.8 47915 47915.3 47915.6 47919.7 47923.8 47928 47932.1 47937.1 47939.5 47942 47945 47948.8 47952.7 47953.9 47955 47956.9 47959.6 47962.3 47962.3 47962.8 47963.6 47964.5 47965.9 47965.1 47964.8 47964.5 47964.2 47963.9 47963.8 47963.8 47963.8 47963.8 47963.8 47962.4 47961.1 47959.7 47958.3 47957.6 47954.4 47951.8 47949.3 47947 47945.2 47940.8 47936.5 47932.8 47929.7 47926.6 47921.1 47915.6 47910.7 47906.4 47902.1 47895.5 47888.9 47882.8 47877.1 47871.6 47863.9 47856.5 47849.2 47842 47835.3 47826.6 47818.2 47809.8 47801.4 47793.3 47784.7 47776.3 47767.9 47759.4 47749.6 47748.8 47748.1 47747.3 47746.6 47745.8 47735.4 47724.9 47714.5 47704 47693.7 47681.9 47670.4 47658.9 47647.4 47636.1 47623.1 47610.6 47598.1 47585.7 47573.4 47559.4 47545.8 47532.3 47518.9 47505.6 47490.8 47476 47461.6 47447.3 47433.1 47417.3 47401.6 47386.3 47371.1 47355.9 47339.4 47322.8 47306.5 47290.5 47274.4 47257 47239.7 47222.5 47205.6 47188.6 47170.6 47152.5 47134.4 47116.7 47098.9 47080.1 47061.3 47042.4 47023.9 47005.4 46985.9 46966.4 46946.9 46927.6 46908.3 46888.2 46868.1 46847.8 46827.8 46807.9 46787.1 46766.3 46745.5 46724.7 46704.2 46682.9 46661.5 46640 46618.6 46597.5 46575.6 46553.7 46531.7 46509.7 46487.9 46465.6 46443.1 46420.5 46398 46375.7 46352.8 46329.8 46306.8 46283.8 46261 46237.6 46214.2 46190.7 46167.2 46143.9 46120.1 46096.2 46072.3 46048.3 46024.5 46000.3 45976 45951.7 45927.4 45903.1 45878.6 45853.9 45829.1 45804.4 45779.8 45754.8 45729.8 45704.7 45679.6 45654.6 45629.3 45603.9 45578.5 45553.1 45527.7 45502.1 45476.4 45450.7 45424.9 45399.2 45373.3 45347.3 45321.3 45295.2 45269.2 45243 45216.7 45190.4 45164.1 45137.8 45111.3 45084.7 45058.1 45031.6 45005 44978.2 44951.4 44924.6 44897.8 44871 44843.9 44816.9 44789.8 44762.8 44735.7 44708.4 44681.2 44653.9 44626.6 44599.3 44571.8 44544.3 44516.8 44489.3 44461.8 44434.1 44406.4 44378.7 44351 44323.2 44295.4 44267.4 44239.5 44211.6 44183.7 44155.6 44127.5 44099.4 44071.3 44043.2 44014.9 43986.6 43958.3 43930 43901.7 43873.3 43844.8 43816.3 43787.8 43759.3 43730.7 43702 43673.4 43644.7 43616.1 43587.3 43558.4 43529.6 43500.8 43471.9 43442.9 43413.9 43384.9 43355.9 43326.9 43297.7 43268.6 43239.4 43210.2 43181 43151.7 43122.3 43093 43063.6 43034.3 43004.8 42975.3 42945.7 42916.2 42886.7 42857 42827.3 42797.6 42767.9 42738.2 42708.4 42678.5 42648.7 42618.8 42588.9 42558.9 42528.9 42498.8 42468.8 42438.8 42408.6 42378.4 42348.2 42317.9 42287.7 42257.4 42227 42196.6 42166.2 42135.8 42105.2 42074.7 42044.1 42013.5 41982.9 41952.2 41921.5 41890.7 41860 41829.2 41798.3 41767.4 41736.4 41705.5 41674.5 41643.4 41612.3 41581.2 41550.1 41518.9 41487.6 41456.3 41425 41393.7 41362.3 41330.9 41299.4 41267.8 41236.3 41204.8 41173.1 41141.4 41109.7 41078 41046.2 41014.4 40982.5 40950.6 40918.6 40886.7 40854.6 40822.5 40790.4 40758.3 40726.1 40693.8 40661.5 40629.2 40596.8 40564.4 40532 40499.4 40466.9 40434.3 40401.7 40369 40336.3 40303.5 40270.7 40237.9 40205 40172 40139 40106 40073 40039.8 40006.6 39973.4 39940.2 39906.9 39873.6 39840.1 39806.7 39773.2 39739.7 39706.1 39672.5 39638.8 39605.1 39571.4 39537.5 39503.6 39469.7 39435.8 39401.8 39367.7 39333.6 39299.4 39265.2 39231 39196.7 39162.3 39127.9 39093.5 39059 39024.4 38989.8 38955.1 38920.5 38885.8 38850.9 38816 38781.1 38746.2 38711.2 38676.2 38641 38605.8 38570.7 38535.5 38500.1 38464.7 38429.3 38393.9 38358.4 38322.7 38287.1 38251.4 38215.7 38179.9 38144.1 38108.1 38072.2 38036.2 38000.2 37964.1 37927.8 37891.6 37855.4 37819.1 37782.7 37746.2 37709.7 37673.2 37636.6 37599.9 37563.2 37526.4 37489.6 37452.8 37415.8 37378.8 37341.7 37304.7 37267.6 37230.3 37193 37155.7 37118.3 37080.9 37043.4 37005.8 36968.2 36930.5 36892.8 36855 36817.1 36779.2 36741.3 36703.3 36665.2 36627 36588.8 36550.6 36512.3 36473.9 36435.4 36397 36358.4 36319.9 36281.2 36242.4 36203.6 36164.8 36125.9 36086.9 36047.9 36008.8 35969.7 35930.5 35891.2 35851.8 35812.4 35773 35733.6 35693.9 35654.3 35614.6 35574.9 35535.1 35495.2 35455.2 35415.2 35375.2 35335.1 35294.8 35254.6 35214.3 35173.9 35133.5 35093 35052.4 35011.8 34971.1 34930.4 34889.5 34848.6 34807.7 34766.7 34725.7 34684.5 34643.3 34602 34560.7 34519.4 34477.9 34436.4 34394.8 34353.1 34311.5 34269.7 34227.8 34185.9 34144 34102 34059.8 34017.7 33975.4 33933.1 33890.8 33848.3 33805.9 33763.3 33720.7 33678 33635.2 33592.4 33549.5 33506.6 33463.6 33420.4 33377.3 33334.1 33290.8 33247.5 33204 33160.5 33116.9 33073.3 33029.7 32985.8 32942 32898.1 32854.1 32810.2 32766 32721.8 32677.6 32633.3 32589 32544.5 32500 32455.4 32410.7 32366 32321.2 32276.3 32231.4 32186.4 32141.4 32096.2 32051 32005.7 31960.3 31915 31869.4 31823.9 31778.2 31732.5 31686.8 31640.9 31595 31549 31502.9 31456.8 31410.6 31364.3 31318 31271.5 31225.1 31178.5 31131.8 31085.1 31038.3 30991.5 30944.6 30897.6 30850.5 30803.3 30756.2 30708.8 30661.5 30614 30566.5 30519 30471.2 30423.5 30375.7 30327.8 30279.9 30231.8 30183.7 30135.5 30087.3 30039 29990.5 29942 29893.5 29844.8 29796.2 29747.3 29698.5 29649.5 29600.5 29551.5 29502.3 29453 29403.7 29354.3 29304.9 29255.3 29205.6 29155.9 29106.1 29056.3 29006.3 28956.3 28906.2 28856 28805.8 28755.4 28705 28654.5 28603.9 28553.4 28502.5 28451.7 28400.8 28349.8 28298.9 28247.7 28196.4 28145.1 28093.8 28042.4 27990.8 27939.1 27887.4 27835.6 27783.9 27731.8 27679.8 27627.7 27575.5 27523.3 27470.8 27418.3 27365.8 27313.2 27260.6 27207.7 27154.8 27101.9 27048.8 26995.8 26942.5 26889.2 26835.8 26782.4 26728.9 26675.2 26621.4 26567.6 26513.8 26459.9 26405.7 26351.6 26297.3 26243.1 26188.8 26134.2 26079.6 26025 25970.3 25915.6 25860.6 25805.6 25750.6 25695.6 25640.5 25585.2 25529.8 25474.5 25419.1 25363.7 25308 25252.4 25196.8 25141.2 25085.5 25029.6 24973.8 24918.1 24862.4 24806.6 24750.7 24695 24639.3 24583.6 24527.9 24472.2 24416.9 24361.8 24306.8 24252 24197.4 24142.4 24087.4 24032.4 23977 23922.3 23873.6 23825 23776.4 23732.6 23683.5 23618.1 23552.7 23487.1 23412.6 23361.4 23331.1 23301 23271.2 23257 23252.8 23248.7 23244.5 23240.4 23238.8 23236.2 23231 23225.7 23220.4 23214.7 23187.8 23160.6 23133.1 23105.4 23061.8 22985.9 22916.9 22848 22779.1 22722.9 22671.7 22615.4 22559.1 22502.7 22440 22372.3 22304.2 22236.1 22168 22099.5 22028.2 21955 21881.7 21808.5 21733.2 21654.9 21575.1 21495.3 21415.5 21334.1 21249.8 21163.7 21077.6 20991.4 20903.4 20812.4 20719.5 20626.5 20533.5 20438.7 20340.6 20240.4 20140.1 20039.7 19937.4 19831.5 19723.3 19615 19506.6 19396.2 19281.8 19164.8 19047.5 18930.2 18810.4 18686.4 18559.7 18432.8 18305.7 18176.3 18042.3 17904.3 17766.2 17627.8 17486 17339 17189.3 17039.4 16889.5 16737.2 16579.4 16414.9 16249.9 16084.7 15913.2 15735.5 15557.3 15379.2 15201 15023 14838.3 14638.8 14438.5 14237.4 14022.1 13798.9 13585.8 13373.3 13161.4 12960.1 12751.2 12503.7 12253.9 12002 11712.7 11412.6 11157.2 10904.7 10655 10450.2 10237.6 9921.66 9598.08 9265.92 8833.23 8384.25 8071.49 7773.87 7494.29 7349.18 7198.15 6801.68 6357.21 5838.97 5089.6 4311.32 3779.15 3398.23 3250.9 3316.63 3382.94 3362.01 2777.12 1388.15 0