/*--------------------------------*- C++ -*----------------------------------*\
  =========                 |
  \\      /  F ield         | OpenFOAM: The Open Source CFD Toolbox
   \\    /   O peration     | Website:  https://openfoam.org
    \\  /    A nd           | Version:  8
     \\/     M anipulation  |
\*---------------------------------------------------------------------------*/
FoamFile
{
    version     2.0;
    format      ascii;
    class       volScalarField;
    location    "1.1";
    object      Ca2;
}
// * * * * * * * * * * * * * * * * * * * * * * * * * * * * * * * * * * * * * //

dimensions      [0 0 0 0 0 0 0];

internalField   nonuniform List<scalar> 
6300
(
0.032627
0.125035
0.197724
0.255288
0.305084
0.351593
0.398115
0.446299
0.496558
0.548728
0.602498
0.65757
0.713709
0.77073
0.828493
0.886893
0.945851
1.00531
1.06522
1.12556
1.18632
1.24748
1.30905
1.37105
1.43352
1.49674
1.56204
1.63641
1.75511
2.12282
0.0633492
0.155932
0.227947
0.287561
0.338855
0.386278
0.433382
0.481945
0.532399
0.58456
0.638091
0.692697
0.74815
0.804278
0.860952
0.918077
0.975581
1.03341
1.09153
1.14992
1.20855
1.26742
1.3265
1.38582
1.44537
1.5054
1.56723
1.63799
1.75415
2.11202
0.0694921
0.154327
0.23083
0.298995
0.35697
0.407853
0.456174
0.504954
0.555458
0.607825
0.661734
0.716801
0.77271
0.829218
0.88615
0.943375
1.00079
1.05834
1.11596
1.17362
1.23131
1.28903
1.34678
1.40459
1.46254
1.52091
1.58107
1.64994
1.76256
2.11063
0.0817883
0.158555
0.234031
0.305195
0.36765
0.42216
0.472437
0.522017
0.572809
0.625317
0.679337
0.734498
0.790459
0.84696
0.903807
0.960849
1.01797
1.07504
1.13179
1.18809
1.24432
1.30053
1.35674
1.41293
1.46912
1.52555
1.58377
1.65113
1.7639
2.10424
0.0945346
0.165673
0.238424
0.309408
0.373423
0.429829
0.481438
0.531631
0.582544
0.634919
0.688696
0.743565
0.799208
0.855376
0.911874
0.968559
1.02532
1.08206
1.13809
1.19359
1.24912
1.30467
1.36023
1.41578
1.47133
1.52714
1.58478
1.65185
1.76537
2.09893
0.10698
0.17432
0.244739
0.314925
0.37958
0.437268
0.490022
0.540899
0.592079
0.644456
0.698089
0.752734
0.808103
0.863958
0.920116
0.976436
1.03281
1.08915
1.14396
1.19876
1.2536
1.30847
1.36336
1.41826
1.47318
1.52839
1.58555
1.65249
1.76691
2.0937
0.119144
0.18378
0.252394
0.321674
0.38645
0.444922
0.498557
0.550066
0.601563
0.654015
0.707572
0.762043
0.817176
0.872746
0.928582
0.984548
1.04054
1.09551
1.14956
1.20367
1.25782
1.31202
1.36626
1.42052
1.47483
1.5295
1.58623
1.65316
1.76852
2.08851
0.131075
0.193656
0.260876
0.329305
0.393937
0.452842
0.507121
0.559168
0.610978
0.663539
0.717059
0.771395
0.826319
0.881628
0.937159
0.992782
1.0484
1.10169
1.15504
1.20845
1.26192
1.31545
1.36904
1.42268
1.47641
1.53055
1.5869
1.65389
1.77015
2.08333
0.142824
0.203778
0.269909
0.337587
0.40195
0.461062
0.515796
0.568286
0.620386
0.673069
0.726577
0.780801
0.835541
0.890607
0.945848
1.00114
1.05519
1.10777
1.16042
1.21313
1.26591
1.31878
1.37172
1.42475
1.47791
1.53156
1.58758
1.65467
1.77179
2.07812
0.154432
0.214079
0.27934
0.346368
0.410409
0.469584
0.524631
0.577476
0.629836
0.682645
0.736157
0.79029
0.844862
0.899703
0.954666
1.00964
1.0619
1.11377
1.1657
1.21771
1.26981
1.322
1.37431
1.42674
1.47936
1.53253
1.58824
1.65548
1.7734
2.07289
0.165938
0.224531
0.28909
0.355548
0.419247
0.478393
0.533648
0.586778
0.639366
0.692295
0.745821
0.799875
0.854296
0.908922
0.963619
1.01745
1.06854
1.11968
1.17089
1.2222
1.27361
1.32515
1.37683
1.42867
1.48074
1.53346
1.58889
1.6563
1.77497
2.06761
0.17738
0.235126
0.29911
0.365064
0.428416
0.487469
0.542857
0.596211
0.649
0.702041
0.755584
0.809572
0.863852
0.918274
0.972711
1.02476
1.07511
1.12551
1.176
1.2266
1.27734
1.32822
1.37927
1.43053
1.48206
1.53434
1.58951
1.6571
1.77646
2.06229
0.188788
0.245867
0.309377
0.374876
0.437878
0.496799
0.552262
0.605792
0.658752
0.711899
0.765462
0.819388
0.873536
0.927763
0.981947
1.03203
1.08162
1.13128
1.18104
1.23093
1.28098
1.3312
1.38164
1.43231
1.48333
1.53517
1.59009
1.65789
1.77788
2.05691
0.200197
0.256758
0.319875
0.384957
0.447608
0.506365
0.56186
0.615531
0.668638
0.721881
0.775463
0.829334
0.883357
0.937394
0.990478
1.03925
1.08808
1.13699
1.18602
1.23519
1.28455
1.33411
1.38392
1.43402
1.48452
1.53593
1.59063
1.65864
1.77921
2.05146
0.211635
0.267806
0.330597
0.395289
0.457589
0.516159
0.571652
0.625432
0.678669
0.731997
0.785599
0.839417
0.89332
0.947172
0.998462
1.04645
1.09449
1.14264
1.19093
1.23938
1.28804
1.33695
1.38614
1.43565
1.48564
1.53663
1.59111
1.65934
1.78044
2.04594
0.223131
0.279022
0.341539
0.405861
0.467806
0.526171
0.581636
0.635502
0.68885
0.742256
0.795876
0.849645
0.903431
0.957105
1.00644
1.05361
1.10087
1.14824
1.19578
1.2435
1.29146
1.3397
1.38827
1.43721
1.48667
1.53725
1.59151
1.65998
1.78156
2.04035
0.234711
0.290413
0.352698
0.416663
0.478251
0.536397
0.591812
0.645743
0.699188
0.752667
0.806304
0.860024
0.913698
0.967196
1.0144
1.06076
1.10721
1.1538
1.20057
1.24756
1.29481
1.34238
1.39032
1.43868
1.48763
1.53779
1.59184
1.66055
1.78257
2.03467
0.246399
0.30199
0.364078
0.427694
0.488918
0.546829
0.60218
0.656159
0.709691
0.763235
0.816886
0.870563
0.924126
0.976932
1.02237
1.06788
1.11351
1.1593
1.2053
1.25154
1.29809
1.34498
1.39228
1.44006
1.48849
1.53824
1.59209
1.66105
1.78345
2.02891
0.258219
0.313763
0.375679
0.43895
0.499803
0.557469
0.612739
0.666753
0.720361
0.773965
0.827633
0.881265
0.934721
0.985776
1.03033
1.07499
1.11978
1.16476
1.20997
1.25547
1.30129
1.34749
1.39415
1.44134
1.48925
1.53858
1.59224
1.66146
1.7842
2.02305
0.270191
0.325739
0.387506
0.450432
0.510905
0.568311
0.62349
0.677528
0.731206
0.784868
0.838549
0.892138
0.945491
0.994643
1.0383
1.08208
1.12602
1.17018
1.21459
1.25932
1.30441
1.34992
1.39593
1.44252
1.4899
1.53881
1.59229
1.66178
1.78481
2.0171
0.282335
0.337931
0.399561
0.46214
0.522222
0.57936
0.634434
0.688489
0.742229
0.795944
0.84964
0.90319
0.956443
1.00354
1.04627
1.08915
1.13223
1.17555
1.21915
1.2631
1.30745
1.35226
1.39761
1.44359
1.49043
1.53893
1.59223
1.66199
1.78527
2.01104
0.294671
0.350349
0.411851
0.474075
0.533759
0.590616
0.645576
0.699638
0.753436
0.807203
0.860915
0.914427
0.967582
1.01245
1.05424
1.09622
1.13841
1.18087
1.22365
1.26681
1.3104
1.3545
1.39918
1.44454
1.49084
1.53892
1.59206
1.66209
1.78558
2.00488
0.307214
0.363002
0.424381
0.486245
0.545514
0.60208
0.656918
0.710981
0.764832
0.818651
0.872379
0.925856
0.978917
1.0214
1.06222
1.10327
1.14456
1.18615
1.22809
1.27044
1.31326
1.35664
1.40064
1.44537
1.49113
1.53878
1.59175
1.66206
1.78572
1.99859
0.319984
0.375902
0.437158
0.49865
0.557494
0.613757
0.668466
0.722524
0.776424
0.830295
0.88404
0.937485
0.990455
1.03037
1.07021
1.1103
1.15067
1.19137
1.23246
1.27399
1.31603
1.35866
1.40197
1.44608
1.49127
1.53851
1.59131
1.66191
1.78568
1.99218
0.332994
0.389057
0.450189
0.511298
0.569703
0.625654
0.680222
0.734269
0.788219
0.84214
0.895906
0.949323
1.00082
1.03937
1.0782
1.11732
1.15675
1.19655
1.23676
1.27746
1.31871
1.36058
1.40318
1.44664
1.49127
1.53808
1.59073
1.66162
1.78547
1.98563
0.34626
0.40248
0.463482
0.524194
0.582148
0.637773
0.692195
0.746227
0.800223
0.854196
0.907985
0.961376
1.01092
1.0484
1.0862
1.12432
1.1628
1.20167
1.24099
1.28083
1.32127
1.36238
1.40426
1.44706
1.49111
1.53749
1.59
1.66117
1.78506
1.97894
0.359796
0.416182
0.477048
0.537349
0.594833
0.650121
0.70439
0.758404
0.812444
0.86647
0.920286
0.973656
1.02107
1.05745
1.0942
1.13131
1.1688
1.20673
1.24515
1.28412
1.32373
1.36405
1.40519
1.44732
1.49079
1.53674
1.5891
1.66056
1.78445
1.97211
0.37362
0.430173
0.490894
0.550766
0.607767
0.662709
0.716815
0.770807
0.824891
0.878973
0.932817
0.986172
1.03128
1.06654
1.1022
1.13827
1.17476
1.21173
1.24922
1.2873
1.32606
1.36559
1.40598
1.44742
1.4903
1.53582
1.58804
1.65979
1.78362
1.96511
0.387743
0.444466
0.505031
0.56446
0.620959
0.67554
0.72948
0.783445
0.837574
0.891713
0.94559
0.998934
1.04154
1.07564
1.1102
1.1452
1.18067
1.21666
1.2532
1.29038
1.32827
1.36698
1.40661
1.44735
1.48963
1.53472
1.58679
1.65883
1.78258
1.95795
0.402181
0.459072
0.51947
0.578436
0.634418
0.688628
0.742392
0.796329
0.850503
0.904701
0.958617
1.01195
1.05185
1.08476
1.11819
1.15211
1.18654
1.22151
1.2571
1.29334
1.33036
1.36823
1.40708
1.44711
1.48878
1.53342
1.58536
1.65768
1.7813
1.9506
0.416949
0.474006
0.534223
0.592708
0.648157
0.701982
0.755564
0.80947
0.863689
0.91795
0.971909
1.02525
1.0622
1.0939
1.12617
1.15898
1.19234
1.22629
1.26089
1.29619
1.33231
1.36932
1.40738
1.44668
1.48772
1.53191
1.58373
1.65633
1.77977
1.94307
0.432062
0.48928
0.549303
0.60729
0.662184
0.715614
0.769007
0.82288
0.877146
0.931473
0.98548
1.03882
1.0726
1.10306
1.13414
1.16581
1.19808
1.23098
1.26457
1.29892
1.33411
1.37025
1.40749
1.44605
1.48646
1.53021
1.58189
1.65476
1.77798
1.93533
0.447535
0.504908
0.564724
0.622191
0.676516
0.729537
0.782736
0.836573
0.890886
0.945285
0.999345
1.0527
1.08304
1.11222
1.14209
1.1726
1.20375
1.23558
1.26815
1.3015
1.33575
1.37101
1.40741
1.44522
1.48498
1.52827
1.57982
1.65296
1.77592
1.92739
0.463385
0.520907
0.580501
0.637427
0.691165
0.743766
0.796762
0.850562
0.904927
0.959401
1.01352
1.06652
1.09351
1.12138
1.15001
1.17933
1.20934
1.24008
1.2716
1.30395
1.33724
1.37159
1.40714
1.44417
1.48328
1.52611
1.57753
1.65093
1.77358
1.91922
0.479628
0.537293
0.596648
0.653016
0.706148
0.758316
0.811105
0.864868
0.919285
0.97384
1.02803
1.07844
1.104
1.13054
1.15789
1.18599
1.21485
1.24447
1.27491
1.30624
1.33856
1.37197
1.40665
1.4429
1.48134
1.52371
1.575
1.64864
1.77093
1.91081
0.496283
0.554082
0.613184
0.668973
0.721482
0.773205
0.825783
0.879507
0.933981
0.988621
1.04288
1.09041
1.11451
1.13968
1.16572
1.19259
1.22025
1.24874
1.27809
1.30837
1.33969
1.37216
1.40596
1.4414
1.47916
1.52105
1.57222
1.64609
1.76798
1.90216
0.51337
0.571295
0.630129
0.68532
0.737186
0.788454
0.840815
0.894502
0.949036
1.00377
1.05811
1.10242
1.12503
1.14879
1.1735
1.1991
1.22555
1.25287
1.28112
1.31034
1.34064
1.37214
1.40504
1.43965
1.47673
1.51815
1.56917
1.64326
1.76469
1.89324
0.530909
0.588951
0.647502
0.702075
0.753282
0.804085
0.856224
0.909877
0.964476
1.01931
1.07373
1.11447
1.13554
1.15785
1.1812
1.20551
1.23072
1.25687
1.28398
1.31212
1.34138
1.3719
1.40388
1.43767
1.47404
1.51497
1.56585
1.64014
1.76106
1.88404
0.548924
0.607072
0.665326
0.719262
0.769795
0.820123
0.87204
0.925659
0.98033
1.03527
1.08978
1.12653
1.14602
1.16686
1.18882
1.2118
1.23577
1.26071
1.28667
1.31371
1.34192
1.37144
1.40249
1.43542
1.47108
1.51152
1.56226
1.63672
1.75707
1.87455
0.567438
0.625685
0.683627
0.736909
0.786752
0.836596
0.88829
0.941881
0.996629
1.05168
1.1063
1.13858
1.15645
1.17578
1.19632
1.21796
1.24065
1.26438
1.28917
1.3151
1.34225
1.37075
1.40084
1.43292
1.46785
1.50779
1.55837
1.63298
1.75272
1.86476
0.586479
0.644817
0.702433
0.755042
0.804181
0.853537
0.90501
0.958578
1.01341
1.06858
1.12331
1.15059
1.16681
1.18459
1.20369
1.22397
1.24536
1.26786
1.29148
1.31627
1.34234
1.36982
1.39895
1.43015
1.46434
1.50378
1.55418
1.62891
1.74798
1.85465
0.606079
0.664498
0.721777
0.773698
0.822121
0.870986
0.92224
0.975796
1.03073
1.08603
1.14086
1.16253
1.17706
1.19328
1.21091
1.2298
1.24989
1.27114
1.29357
1.31723
1.34221
1.36865
1.3968
1.42711
1.46055
1.49947
1.5497
1.62452
1.74284
1.84422
0.626273
0.684763
0.741692
0.792912
0.840611
0.888983
0.940028
0.993581
1.04862
1.10406
1.159
1.17437
1.18717
1.20179
1.21793
1.23544
1.25421
1.27421
1.29544
1.31795
1.34184
1.36723
1.39439
1.4238
1.45649
1.49487
1.5449
1.61977
1.73729
1.83343
0.647099
0.705652
0.762222
0.812727
0.859697
0.907582
0.958429
1.01199
1.06715
1.12273
1.17754
1.18604
1.19708
1.21009
1.22474
1.24084
1.25829
1.27703
1.29707
1.31844
1.34122
1.36556
1.39173
1.42023
1.45214
1.48999
1.5398
1.61468
1.73131
1.82228
0.668602
0.72721
0.783411
0.833196
0.879434
0.926843
0.97751
1.03111
1.08639
1.14213
1.19096
1.19749
1.20676
1.21814
1.23129
1.24599
1.26212
1.27962
1.29846
1.31869
1.34037
1.36366
1.38883
1.41641
1.44754
1.48482
1.53439
1.60923
1.72489
1.81076
0.690836
0.74949
0.805317
0.854375
0.89989
0.94684
0.997351
1.051
1.10644
1.16232
1.2041
1.20865
1.21613
1.22588
1.23753
1.25084
1.26568
1.28194
1.29961
1.3187
1.33929
1.36153
1.38569
1.41234
1.44268
1.47939
1.52868
1.60343
1.71803
1.79885
0.71386
0.772555
0.828003
0.876337
0.921142
0.96766
1.01805
1.07178
1.12737
1.18341
1.21687
1.21942
1.22512
1.23326
1.24344
1.25539
1.26894
1.284
1.30052
1.3185
1.338
1.35919
1.38235
1.40807
1.43759
1.47371
1.52269
1.59727
1.71072
1.78654
0.73775
0.796478
0.851548
0.899166
0.943287
0.989416
1.03972
1.09356
1.14933
1.2055
1.22913
1.22971
1.23365
1.24022
1.24896
1.25959
1.27191
1.2858
1.30119
1.31808
1.33653
1.35668
1.37883
1.40361
1.43231
1.4678
1.51643
1.59075
1.70293
1.7738
0.762592
0.82135
0.876047
0.922971
0.966449
1.01224
1.06253
1.11651
1.17245
1.22872
1.24073
1.23938
1.24163
1.24669
1.25407
1.26344
1.27457
1.28734
1.30165
1.31749
1.3349
1.35403
1.37519
1.39903
1.42689
1.46172
1.50992
1.5839
1.69467
1.76063
0.788502
0.847284
0.901621
0.947882
0.990778
1.03632
1.08664
1.1408
1.1969
1.2532
1.25151
1.24832
1.24897
1.25262
1.25872
1.2669
1.27694
1.28866
1.30195
1.31678
1.33319
1.35132
1.37149
1.39438
1.42138
1.45551
1.50323
1.57672
1.68594
1.74697
0.8156
0.87442
0.928424
0.97408
1.01649
1.06187
1.11232
1.16668
1.22289
1.2717
1.26123
1.25635
1.25556
1.25793
1.26288
1.27001
1.27905
1.28979
1.30213
1.31601
1.33145
1.34862
1.36781
1.38975
1.41587
1.44925
1.49639
1.56927
1.67672
1.73281
0.844118
0.902957
0.95665
1.00177
1.0438
1.08916
1.1398
1.19436
1.25058
1.28191
1.26968
1.26336
1.26132
1.2626
1.26656
1.27277
1.28093
1.29081
1.30227
1.31527
1.32981
1.34603
1.36428
1.38526
1.41048
1.44307
1.48953
1.56161
1.66704
1.71809
0.874176
0.933131
0.986616
1.03136
1.07321
1.11871
1.16962
1.22431
1.28033
1.29012
1.27652
1.26907
1.26608
1.26652
1.26971
1.27518
1.2826
1.29173
1.30243
1.31462
1.32832
1.34366
1.36099
1.38104
1.40534
1.43708
1.48275
1.55381
1.65692
1.70279
0.90651
0.965385
1.01861
1.06304
1.10487
1.15064
1.20179
1.25637
1.31176
1.29626
1.28176
1.27359
1.26999
1.26986
1.2725
1.27741
1.28425
1.29277
1.30281
1.31429
1.32722
1.34174
1.35819
1.37733
1.40072
1.43156
1.47631
1.54611
1.64649
1.68684
0.940715
1.0001
1.05358
1.09824
1.14049
1.18676
1.23808
1.29215
1.32289
1.29887
1.28428
1.27602
1.2723
1.27201
1.27443
1.27906
1.28554
1.29364
1.30318
1.31409
1.32638
1.34019
1.35586
1.37417
1.39669
1.42662
1.47035
1.53864
1.63583
1.67031
0.98045
1.03864
1.09139
1.13579
1.17818
1.22448
1.27507
1.32735
1.32376
1.30035
1.28622
1.2783
1.27478
1.27457
1.27696
1.28145
1.2877
1.29548
1.30463
1.31505
1.32679
1.33996
1.35493
1.37246
1.39415
1.42319
1.46582
1.53231
1.62564
1.65323
1.0204
1.08175
1.13719
1.18378
1.22753
1.27388
1.32279
1.34771
1.31389
1.29332
1.28132
1.27499
1.27267
1.27334
1.27636
1.28128
1.2878
1.29569
1.30484
1.31516
1.32668
1.33954
1.3541
1.37114
1.39223
1.42053
1.4621
1.52665
1.61579
1.63649
1.08317
1.133
1.18227
1.22501
1.26484
1.30562
1.346
1.3444
1.31509
1.29712
1.28683
1.28163
1.28003
1.28113
1.28435
1.2893
1.29571
1.30339
1.31221
1.3221
1.33311
1.34536
1.35923
1.3755
1.39574
1.42307
1.46332
1.52539
1.60901
1.61962
1.12811
1.20372
1.26719
1.31353
1.34771
1.36871
1.33659
1.30239
1.28237
1.27172
1.26693
1.26595
1.26767
1.27143
1.27681
1.28354
1.29143
1.30034
1.3102
1.32097
1.33269
1.34552
1.35982
1.37636
1.39666
1.42374
1.46321
1.52341
1.60291
1.60792
1.29374
1.27321
1.28856
1.30002
1.30573
1.3122
1.31851
1.31908
1.31413
1.30912
1.30606
1.30506
1.30588
1.30828
1.31207
1.31707
1.32316
1.33022
1.33817
1.34698
1.35669
1.36743
1.37958
1.39385
1.41176
1.43612
1.47207
1.52665
1.59606
1.58663
1.51652
1.39081
1.33819
1.3246
1.32326
1.32251
1.31396
1.30054
1.29009
1.28396
1.2813
1.28126
1.28329
1.28703
1.29224
1.29873
1.30636
1.31501
1.32463
1.3352
1.34679
1.35957
1.37395
1.39073
1.4115
1.43917
1.4788
1.53666
1.60609
1.5888
1.42509
1.39085
1.36143
1.33534
1.31803
1.31127
1.31466
1.32546
1.33993
1.35365
1.3613
1.36223
1.36123
1.36087
1.36183
1.36421
1.36794
1.37289
1.379
1.38621
1.39452
1.40407
1.41521
1.42865
1.44586
1.46959
1.50456
1.55643
1.6175
1.58839
1.48692
1.47632
1.44585
1.41296
1.387
1.37222
1.36888
1.37406
1.38159
1.37831
1.37112
1.36619
1.36359
1.36298
1.36411
1.36676
1.37079
1.37603
1.3824
1.38985
1.39838
1.40813
1.41943
1.43298
1.45021
1.4738
1.50838
1.55939
1.61832
1.58487
1.47175
1.4831
1.46757
1.43752
1.40778
1.38691
1.37756
1.37815
1.38555
1.39659
1.40115
1.39606
1.39288
1.39158
1.3919
1.39364
1.39668
1.40087
1.40613
1.4124
1.4197
1.42814
1.43804
1.45007
1.46565
1.48741
1.51996
1.56856
1.62413
1.58522
1.47357
1.49985
1.49502
1.46857
1.43735
1.41264
1.39879
1.39511
1.39881
1.40692
1.40863
1.40435
1.40212
1.40154
1.40235
1.40441
1.40758
1.41177
1.4169
1.42293
1.42988
1.43786
1.44718
1.45852
1.47325
1.49405
1.5255
1.57288
1.62662
1.5842
1.46882
1.50365
1.50795
1.48616
1.45543
1.42874
1.41185
1.40497
1.4057
1.41125
1.41624
1.41297
1.41151
1.41147
1.41264
1.41487
1.41808
1.42218
1.4271
1.43281
1.43932
1.44676
1.45541
1.46598
1.47983
1.49966
1.53012
1.57651
1.62872
1.58345
1.46557
1.50582
1.51699
1.49955
1.47002
1.4424
1.42349
1.41423
1.4126
1.41601
1.41985
1.41759
1.41692
1.41748
1.41907
1.42158
1.42493
1.42903
1.43386
1.43936
1.44556
1.45259
1.46074
1.4707
1.48388
1.50301
1.5328
1.57826
1.62906
1.58221
1.46205
1.50557
1.52191
1.50834
1.48031
1.45245
1.43228
1.4213
1.41789
1.41957
1.42229
1.4209
1.42092
1.42199
1.42394
1.42669
1.43014
1.43425
1.43897
1.44428
1.45019
1.45685
1.46455
1.474
1.48662
1.50519
1.53393
1.57644
1.62835
1.58076
1.4589
1.50445
1.52471
1.51442
1.48793
1.46018
1.43924
1.42705
1.42227
1.42261
1.42358
1.42295
1.42357
1.42511
1.42739
1.43034
1.4339
1.43801
1.44264
1.44778
1.45345
1.45979
1.46711
1.47613
1.48831
1.50648
1.53157
1.5753
1.62785
1.57911
1.45597
1.50275
1.52599
1.5185
1.49348
1.466
1.4446
1.43155
1.42576
1.42504
1.42426
1.42427
1.42542
1.42735
1.42991
1.43305
1.43669
1.4408
1.44536
1.45034
1.45579
1.46185
1.46885
1.47752
1.48936
1.50399
1.52982
1.57459
1.62747
1.57734
1.45328
1.50079
1.52634
1.52125
1.49756
1.47044
1.44876
1.4351
1.42854
1.42569
1.42449
1.42504
1.42664
1.42891
1.43174
1.43503
1.43875
1.44287
1.44735
1.4522
1.45746
1.46329
1.47002
1.47841
1.48759
1.50192
1.52851
1.57413
1.62712
1.5755
1.45081
1.4987
1.52608
1.52304
1.50056
1.47381
1.45197
1.43766
1.42887
1.42513
1.42443
1.42544
1.42741
1.43
1.43305
1.43649
1.44027
1.44439
1.44882
1.45356
1.45866
1.46428
1.47079
1.47724
1.48544
1.50026
1.52751
1.57384
1.62676
1.57364
1.44854
1.49657
1.52543
1.52417
1.50278
1.47638
1.45215
1.43632
1.42786
1.42449
1.42418
1.42556
1.42786
1.43071
1.43396
1.43752
1.44138
1.44551
1.44989
1.45453
1.45949
1.46495
1.46998
1.47516
1.48366
1.49889
1.52672
1.57366
1.62638
1.57177
1.44645
1.49446
1.52451
1.52481
1.50442
1.47506
1.45088
1.43517
1.4269
1.4238
1.4238
1.42549
1.42806
1.43115
1.43456
1.43825
1.44216
1.4463
1.45064
1.4552
1.46006
1.46431
1.46806
1.47341
1.48216
1.49776
1.52609
1.57355
1.62599
1.56994
1.44451
1.49238
1.52341
1.52512
1.50353
1.47404
1.44986
1.43417
1.42601
1.4231
1.42334
1.42527
1.42807
1.43136
1.43492
1.43871
1.44269
1.44683
1.45114
1.45564
1.45948
1.46261
1.46644
1.47192
1.48089
1.49681
1.52559
1.5735
1.62559
1.56815
1.44271
1.49035
1.5222
1.52517
1.50262
1.47328
1.44905
1.43331
1.42519
1.4224
1.42281
1.42495
1.42794
1.43139
1.43509
1.43897
1.443
1.44715
1.45144
1.45513
1.458
1.46114
1.46503
1.47063
1.47979
1.496
1.52519
1.5735
1.62518
1.56642
1.44103
1.48838
1.52092
1.52497
1.50192
1.47273
1.44842
1.43258
1.42444
1.42171
1.42226
1.42454
1.4277
1.43128
1.43509
1.43906
1.44313
1.4473
1.45112
1.45388
1.45672
1.45987
1.46381
1.46951
1.47884
1.4953
1.52487
1.57353
1.62476
1.56474
1.43946
1.48647
1.51959
1.52386
1.50139
1.47234
1.44793
1.43195
1.42375
1.42104
1.42167
1.42408
1.42737
1.43107
1.43498
1.43901
1.44313
1.44732
1.45008
1.45278
1.45559
1.45875
1.46273
1.46852
1.47799
1.49469
1.52461
1.5736
1.62436
1.56312
1.43798
1.48463
1.51824
1.52283
1.501
1.47209
1.44756
1.43142
1.42311
1.4204
1.42108
1.42358
1.42696
1.43076
1.43476
1.43885
1.443
1.44652
1.44914
1.4518
1.45458
1.45775
1.46177
1.46764
1.47724
1.49417
1.52442
1.5737
1.62395
1.56156
1.43659
1.48284
1.51687
1.52192
1.5007
1.47194
1.44728
1.43096
1.42252
1.41977
1.42047
1.42304
1.42651
1.43039
1.43445
1.4386
1.44279
1.44572
1.44829
1.45091
1.45368
1.45685
1.46091
1.46684
1.47657
1.49371
1.52427
1.57382
1.62355
1.56006
1.43526
1.4811
1.5155
1.52108
1.50048
1.47188
1.44709
1.43058
1.42199
1.41916
1.41986
1.42248
1.42601
1.42996
1.43408
1.43827
1.44249
1.44499
1.44751
1.4501
1.45286
1.45603
1.46012
1.46612
1.47596
1.49331
1.52417
1.57397
1.62315
1.55862
1.43401
1.47942
1.51413
1.52029
1.50032
1.47189
1.44697
1.43024
1.42149
1.41858
1.41926
1.4219
1.42548
1.42948
1.43365
1.43789
1.44183
1.44429
1.44679
1.44935
1.45209
1.45527
1.45939
1.46545
1.47541
1.49295
1.52411
1.57413
1.62277
1.55722
1.43281
1.47779
1.51276
1.51955
1.5002
1.47195
1.4469
1.42996
1.42103
1.41801
1.41866
1.4213
1.42492
1.42897
1.43318
1.43744
1.44121
1.44364
1.44611
1.44865
1.45139
1.45458
1.45872
1.46484
1.47491
1.49263
1.52408
1.57431
1.62238
1.55588
1.43167
1.47621
1.51141
1.51885
1.50012
1.47206
1.44688
1.42972
1.42061
1.41747
1.41807
1.42071
1.42435
1.42843
1.43267
1.43697
1.4406
1.44301
1.44545
1.44798
1.45072
1.45392
1.45809
1.46426
1.47444
1.49235
1.52408
1.5745
1.622
1.55458
1.43057
1.47467
1.51006
1.51817
1.50006
1.47219
1.4469
1.42952
1.42021
1.41694
1.41748
1.42011
1.42376
1.42787
1.43214
1.43645
1.44
1.44239
1.44483
1.44735
1.45008
1.45329
1.45749
1.46372
1.474
1.4921
1.5241
1.5747
1.62161
1.55332
1.42951
1.47317
1.50872
1.51751
1.50002
1.47235
1.44695
1.42936
1.41984
1.41644
1.4169
1.41951
1.42317
1.42729
1.43158
1.43592
1.43942
1.44179
1.44422
1.44673
1.44947
1.45269
1.45692
1.46321
1.47359
1.49187
1.52414
1.5749
1.62123
1.55211
1.42849
1.47171
1.5074
1.51686
1.49998
1.47254
1.44703
1.42922
1.41949
1.41595
1.41633
1.41891
1.42257
1.4267
1.43101
1.43536
1.43884
1.44121
1.44363
1.44614
1.44889
1.45212
1.45638
1.46272
1.47321
1.49166
1.5242
1.57511
1.62085
1.55093
1.4275
1.47028
1.50609
1.51622
1.49995
1.47273
1.44714
1.42911
1.41917
1.41547
1.41577
1.41831
1.42196
1.4261
1.43043
1.43479
1.43826
1.44063
1.44304
1.44557
1.44831
1.45156
1.45585
1.46225
1.47284
1.49147
1.52427
1.57533
1.62046
1.54978
1.42654
1.46889
1.50479
1.51559
1.49993
1.47294
1.44726
1.42901
1.41886
1.41501
1.41522
1.41772
1.42135
1.4255
1.42983
1.43421
1.43768
1.44005
1.44248
1.445
1.44776
1.45102
1.45534
1.4618
1.47249
1.4913
1.52435
1.57554
1.62007
1.54867
1.42561
1.46753
1.50352
1.51496
1.49989
1.47315
1.44739
1.42894
1.41858
1.41456
1.41468
1.41713
1.42075
1.42489
1.42923
1.43361
1.43712
1.43949
1.44191
1.44444
1.44721
1.45049
1.45485
1.46136
1.47216
1.49115
1.52445
1.57576
1.61968
1.54758
1.42471
1.4662
1.50225
1.51433
1.49986
1.47336
1.44755
1.42889
1.41831
1.41414
1.41415
1.41655
1.42014
1.42428
1.42862
1.43301
1.43655
1.43893
1.44136
1.4439
1.44668
1.44998
1.45436
1.46093
1.47184
1.491
1.52455
1.57597
1.61929
1.54652
1.42383
1.4649
1.50099
1.51369
1.49982
1.47358
1.44771
1.42885
1.41806
1.41372
1.41363
1.41596
1.41954
1.42368
1.42802
1.43241
1.43599
1.43838
1.44081
1.44335
1.44615
1.44947
1.45389
1.46052
1.47152
1.49087
1.52466
1.57618
1.61889
1.54549
1.42297
1.46362
1.49975
1.51306
1.49977
1.47379
1.44788
1.42882
1.41782
1.41331
1.41311
1.4154
1.41894
1.42307
1.42741
1.4318
1.43543
1.43782
1.44027
1.44283
1.44563
1.44897
1.45343
1.46011
1.47122
1.49075
1.52477
1.57638
1.61849
1.54448
1.42213
1.46238
1.49852
1.51243
1.49972
1.47401
1.44806
1.42881
1.4176
1.41292
1.41261
1.41483
1.41835
1.42246
1.4268
1.4312
1.43487
1.43727
1.43972
1.4423
1.44512
1.44848
1.45297
1.45971
1.47093
1.49063
1.52489
1.57658
1.61808
1.54349
1.42132
1.46115
1.49731
1.51179
1.49965
1.47422
1.44824
1.42881
1.41738
1.41254
1.41212
1.41427
1.41776
1.42186
1.42619
1.43059
1.43431
1.43672
1.43919
1.44177
1.44461
1.44799
1.45252
1.45932
1.47064
1.49052
1.52502
1.57677
1.61766
1.54252
1.42052
1.45995
1.49611
1.51114
1.49957
1.47442
1.44843
1.42882
1.41719
1.41217
1.41163
1.41372
1.41718
1.42126
1.42559
1.42999
1.43376
1.43618
1.43866
1.44125
1.4441
1.44751
1.45207
1.45894
1.47036
1.49042
1.52514
1.57696
1.61725
1.54157
1.41973
1.45877
1.49492
1.5105
1.49948
1.47462
1.44862
1.42883
1.41699
1.41181
1.41116
1.41318
1.4166
1.42067
1.42499
1.42938
1.4332
1.43564
1.43813
1.44073
1.4436
1.44703
1.45163
1.45855
1.47009
1.49032
1.52527
1.57714
1.61683
1.54064
1.41897
1.45762
1.49376
1.50984
1.49939
1.47482
1.44882
1.42886
1.41682
1.41146
1.41069
1.41264
1.41603
1.42008
1.42439
1.42879
1.43265
1.4351
1.4376
1.44022
1.4431
1.44656
1.45119
1.45817
1.46982
1.49023
1.52539
1.57731
1.6164
1.53973
1.41821
1.45648
1.49259
1.50918
1.49928
1.47501
1.44902
1.42889
1.41665
1.41112
1.41023
1.41211
1.41546
1.41949
1.4238
1.42819
1.43211
1.43457
1.43708
1.43971
1.44261
1.44609
1.45075
1.4578
1.46955
1.49013
1.52553
1.57748
1.61597
1.53884
1.41748
1.45536
1.49144
1.50852
1.49916
1.47518
1.44921
1.42894
1.41649
1.41079
1.40978
1.41159
1.41489
1.41891
1.42321
1.42759
1.43156
1.43403
1.43655
1.43921
1.44212
1.44562
1.45032
1.45744
1.46929
1.49005
1.52565
1.57764
1.61552
1.53795
1.41675
1.45427
1.49031
1.50785
1.49903
1.47536
1.44941
1.42898
1.41634
1.41047
1.40934
1.41107
1.41434
1.41833
1.42262
1.427
1.43102
1.4335
1.43604
1.4387
1.44163
1.44515
1.44989
1.45707
1.46903
1.48996
1.52578
1.57779
1.61509
1.53709
1.41604
1.45319
1.48918
1.50718
1.49889
1.47553
1.4496
1.42904
1.41619
1.41016
1.40891
1.41056
1.41379
1.41776
1.42204
1.42642
1.43047
1.43297
1.43552
1.4382
1.44115
1.44469
1.44947
1.45671
1.46878
1.48989
1.52591
1.57794
1.61464
1.53623
1.41534
1.45212
1.48807
1.50651
1.49874
1.47568
1.4498
1.42909
1.41606
1.40985
1.40848
1.41006
1.41325
1.41719
1.42146
1.42583
1.42994
1.43244
1.43501
1.43769
1.44067
1.44424
1.44904
1.45635
1.46853
1.48981
1.52604
1.57807
1.61418
1.53539
1.41466
1.45108
1.48697
1.50583
1.49857
1.47583
1.44999
1.42916
1.41594
1.40956
1.40806
1.40957
1.4127
1.41663
1.42089
1.42525
1.4294
1.43192
1.4345
1.4372
1.44018
1.44378
1.44863
1.45599
1.46828
1.48974
1.52617
1.57821
1.61373
1.53457
1.41398
1.45005
1.48588
1.50515
1.4984
1.47598
1.45019
1.42922
1.41582
1.40927
1.40765
1.40908
1.41217
1.41607
1.42032
1.42468
1.42887
1.4314
1.43399
1.43671
1.43971
1.44332
1.44821
1.45564
1.46804
1.48967
1.52629
1.57833
1.61326
1.53375
1.41332
1.44903
1.4848
1.50446
1.49821
1.47611
1.45038
1.42929
1.41571
1.40899
1.40725
1.4086
1.41164
1.41552
1.41976
1.42411
1.42834
1.43088
1.43348
1.43621
1.43923
1.44287
1.44779
1.45529
1.4678
1.4896
1.52642
1.57844
1.6128
1.53294
1.41267
1.44804
1.48373
1.50378
1.49802
1.47624
1.45057
1.42937
1.4156
1.40872
1.40685
1.40812
1.41112
1.41498
1.41919
1.42354
1.42781
1.43037
1.43298
1.43572
1.43876
1.44242
1.44738
1.45494
1.46756
1.48953
1.52655
1.57855
1.61233
1.53215
1.41202
1.44705
1.48267
1.50308
1.49781
1.47636
1.45076
1.42945
1.4155
1.40845
1.40646
1.40765
1.4106
1.41443
1.41865
1.42299
1.42729
1.42986
1.43248
1.43523
1.43829
1.44197
1.44697
1.45459
1.46732
1.48946
1.52667
1.57865
1.61186
1.53136
1.41139
1.44608
1.48163
1.50239
1.49761
1.47647
1.45095
1.42953
1.41541
1.4082
1.40608
1.40719
1.41009
1.4139
1.41809
1.42242
1.42677
1.42935
1.43198
1.43475
1.43781
1.44153
1.44657
1.45425
1.46709
1.4894
1.52679
1.57874
1.61138
1.53058
1.41077
1.44513
1.48059
1.50163
1.49738
1.47657
1.45113
1.42961
1.41532
1.40795
1.40571
1.40673
1.40959
1.41336
1.41755
1.42187
1.42623
1.42884
1.43148
1.43426
1.43735
1.44108
1.44616
1.45391
1.46686
1.48934
1.52691
1.57883
1.6109
1.52982
1.41015
1.44418
1.47956
1.50085
1.49715
1.47667
1.45131
1.4297
1.41525
1.4077
1.40534
1.40628
1.40909
1.41284
1.41701
1.42132
1.42568
1.42833
1.43099
1.43378
1.43689
1.44064
1.44576
1.45357
1.46663
1.48928
1.52703
1.57891
1.61041
1.52906
1.40955
1.44325
1.47854
1.50008
1.49691
1.47675
1.45149
1.42978
1.41516
1.40747
1.40497
1.40583
1.40859
1.41232
1.41647
1.42078
1.42513
1.42783
1.4305
1.4333
1.43642
1.44021
1.44536
1.45324
1.46641
1.48922
1.52714
1.57897
1.60992
1.52831
1.40895
1.44234
1.47754
1.4993
1.49666
1.47683
1.45166
1.42987
1.4151
1.40723
1.40462
1.40539
1.4081
1.4118
1.41594
1.42024
1.42458
1.42734
1.43001
1.43283
1.43596
1.43977
1.44496
1.4529
1.46618
1.48917
1.52726
1.57904
1.60944
1.52757
1.40836
1.44143
1.47654
1.49853
1.4964
1.47691
1.45184
1.42997
1.41503
1.40701
1.40427
1.40496
1.40762
1.41129
1.41541
1.4197
1.42404
1.42684
1.42952
1.43235
1.4355
1.43933
1.44456
1.45257
1.46596
1.48911
1.52737
1.5791
1.60894
1.52684
1.40779
1.44054
1.47555
1.49776
1.49614
1.47697
1.452
1.43006
1.41497
1.40679
1.40392
1.40453
1.40714
1.41078
1.41489
1.41917
1.4235
1.42634
1.42904
1.43188
1.43505
1.4389
1.44417
1.45224
1.46574
1.48906
1.52748
1.57915
1.60845
1.52611
1.40722
1.43966
1.47457
1.49699
1.49586
1.47703
1.45217
1.43016
1.41492
1.40658
1.40359
1.4041
1.40666
1.41027
1.41436
1.41864
1.42297
1.42585
1.42856
1.43141
1.43459
1.43847
1.44377
1.45191
1.46553
1.48901
1.52759
1.57919
1.60795
1.52539
1.40665
1.43879
1.4736
1.49622
1.49558
1.47708
1.45233
1.43025
1.41486
1.40637
1.40325
1.40369
1.40619
1.40978
1.41385
1.41812
1.42244
1.42536
1.42808
1.43094
1.43413
1.43804
1.44338
1.45159
1.46532
1.48896
1.5277
1.57923
1.60745
1.52467
1.40609
1.43793
1.47264
1.49546
1.49529
1.47712
1.45249
1.43035
1.41482
1.40617
1.40293
1.40328
1.40573
1.40928
1.41334
1.4176
1.42192
1.42488
1.4276
1.43047
1.43368
1.43761
1.44299
1.45127
1.4651
1.48891
1.5278
1.57926
1.60694
1.52397
1.40555
1.43709
1.47169
1.4947
1.495
1.47716
1.45264
1.43045
1.41478
1.40598
1.40261
1.40287
1.40527
1.40879
1.41283
1.41708
1.42139
1.42439
1.42712
1.43001
1.43324
1.43719
1.4426
1.45095
1.4649
1.48886
1.52791
1.57929
1.60643
1.52326
1.40501
1.43625
1.47075
1.49393
1.4947
1.47718
1.45279
1.43055
1.41474
1.40578
1.4023
1.40247
1.40481
1.4083
1.41233
1.41657
1.42088
1.42391
1.42665
1.42955
1.43279
1.43676
1.44222
1.45063
1.46469
1.48881
1.52801
1.57931
1.60593
1.52257
1.40447
1.43542
1.46981
1.49317
1.49439
1.47721
1.45294
1.43065
1.4147
1.4056
1.40199
1.40207
1.40436
1.40782
1.41183
1.41606
1.42036
1.42343
1.42618
1.42909
1.43234
1.43634
1.44184
1.45032
1.46448
1.48877
1.52811
1.57932
1.60542
1.52188
1.40394
1.43461
1.46888
1.49242
1.49408
1.47722