/*--------------------------------*- C++ -*----------------------------------*\
  =========                 |
  \\      /  F ield         | OpenFOAM: The Open Source CFD Toolbox
   \\    /   O peration     | Website:  https://openfoam.org
    \\  /    A nd           | Version:  8
     \\/     M anipulation  |
\*---------------------------------------------------------------------------*/
FoamFile
{
    version     2.0;
    format      ascii;
    class       volScalarField;
    location    "1.1";
    object      Ca4;
}
// * * * * * * * * * * * * * * * * * * * * * * * * * * * * * * * * * * * * * //

dimensions      [0 0 0 0 0 0 0];

internalField   nonuniform List<scalar> 
6300
(
0.0411074
0.157535
0.249116
0.321643
0.384382
0.442979
0.501594
0.562301
0.625624
0.691354
0.7591
0.828486
0.899217
0.971058
1.04384
1.11742
1.1917
1.26661
1.34209
1.41812
1.49467
1.57172
1.6493
1.72741
1.80612
1.88577
1.96805
2.06174
2.2113
2.67459
0.0798149
0.196462
0.287195
0.362305
0.426931
0.48668
0.546027
0.607213
0.670781
0.7365
0.803944
0.872743
0.942611
1.01333
1.08473
1.1567
1.22916
1.30202
1.37525
1.44881
1.52268
1.59685
1.67129
1.74602
1.82106
1.89668
1.97458
2.06374
2.21009
2.66098
0.0875546
0.19444
0.290828
0.37671
0.449754
0.513863
0.574744
0.636202
0.699833
0.765811
0.833732
0.903112
0.973553
1.04475
1.11648
1.18858
1.26092
1.33342
1.40602
1.47867
1.55136
1.62407
1.69684
1.76968
1.84269
1.91623
1.99202
2.07879
2.22068
2.65923
0.103047
0.199767
0.29486
0.384522
0.46321
0.531888
0.595233
0.657701
0.721694
0.78785
0.855912
0.925409
0.995916
1.0671
1.13873
1.21059
1.28256
1.35447
1.42596
1.49691
1.56774
1.63857
1.70938
1.78018
1.85098
1.92208
1.99542
2.0803
2.22238
2.65118
0.119106
0.208735
0.300395
0.389829
0.470484
0.541551
0.606574
0.669814
0.73396
0.799947
0.867703
0.936833
1.00694
1.07771
1.14889
1.22031
1.29182
1.3633
1.4339
1.50383
1.5738
1.64378
1.71378
1.78377
1.85375
1.92407
1.9967
2.08121
2.22422
2.64449
0.134787
0.21963
0.308352
0.396781
0.478241
0.550924
0.617389
0.681489
0.745973
0.811963
0.879537
0.948385
1.01815
1.08852
1.15927
1.23023
1.30126
1.37225
1.4413
1.51034
1.57944
1.64857
1.71773
1.7869
1.85609
1.92565
1.99767
2.08201
2.22617
2.6379
0.150112
0.231549
0.317996
0.405283
0.486897
0.560567
0.628142
0.69304
0.757922
0.824007
0.891485
0.960115
1.02958
1.09959
1.16994
1.24045
1.311
1.38025
1.44836
1.51653
1.58476
1.65304
1.72138
1.78974
1.85817
1.92705
1.99852
2.08286
2.2282
2.63136
0.165145
0.243991
0.328684
0.414898
0.496329
0.570545
0.638932
0.704507
0.769784
0.836007
0.903438
0.971897
1.0411
1.11078
1.18075
1.25083
1.3209
1.38804
1.45526
1.52255
1.58992
1.65736
1.72488
1.79246
1.86016
1.92837
1.99937
2.08378
2.23025
2.62483
0.179946
0.256745
0.340064
0.425333
0.506425
0.580902
0.649862
0.715995
0.781638
0.848014
0.915429
0.983747
1.05272
1.12209
1.19169
1.26136
1.32946
1.39571
1.46204
1.52845
1.59495
1.66156
1.72826
1.79507
1.86205
1.92964
2.00022
2.08475
2.23232
2.61827
0.194572
0.269722
0.351947
0.436396
0.517083
0.591638
0.660994
0.727574
0.793544
0.860078
0.927499
0.995702
1.06446
1.13355
1.2028
1.27206
1.33791
1.40326
1.46869
1.53421
1.59986
1.66562
1.73153
1.79758
1.86387
1.93087
2.00106
2.08577
2.23434
2.61168
0.209069
0.282891
0.36423
0.447962
0.528218
0.602738
0.672354
0.739294
0.805551
0.872238
0.939675
1.00778
1.07635
1.14517
1.21408
1.28191
1.34627
1.4107
1.47523
1.53987
1.60465
1.66959
1.7347
1.80001
1.86562
1.93204
2.00188
2.0868
2.23632
2.60503
0.223484
0.29624
0.376856
0.459952
0.539771
0.614172
0.683957
0.751178
0.817688
0.884516
0.951976
1.02
1.08839
1.15695
1.22554
1.29112
1.35455
1.41805
1.48167
1.54542
1.60934
1.67345
1.73777
1.80235
1.86728
1.93314
2.00266
2.08782
2.2382
2.59832
0.237858
0.309773
0.389791
0.472314
0.551691
0.625928
0.695806
0.76325
0.829976
0.896937
0.964422
1.03236
1.10059
1.16891
1.23718
1.30027
1.36275
1.42532
1.48802
1.55088
1.61393
1.67721
1.74075
1.80459
1.86887
1.93419
2.00339
2.08881
2.23999
2.59154
0.252232
0.323494
0.403018
0.485015
0.563951
0.63798
0.707899
0.77552
0.842432
0.909513
0.977022
1.0449
1.11296
1.18104
1.24792
1.30938
1.37089
1.43252
1.49429
1.55624
1.61843
1.68088
1.74363
1.80675
1.87037
1.93515
2.00407
2.08975
2.24166
2.58467
0.266644
0.337415
0.416527
0.498033
0.576527
0.65032
0.720237
0.787995
0.855069
0.922258
0.989792
1.0576
1.12551
1.19336
1.25798
1.31844
1.37898
1.43964
1.50047
1.56152
1.62283
1.68445
1.74642
1.80881
1.87179
1.93604
2.00467
2.09064
2.24322
2.57772
0.281128
0.351545
0.430312
0.511352
0.589398
0.662934
0.732816
0.800682
0.867896
0.935184
1.00274
1.07049
1.13825
1.20588
1.26803
1.32747
1.38701
1.4467
1.50658
1.56671
1.62714
1.68792
1.74911
1.81077
1.87309
1.93682
2.00518
2.09144
2.24463
2.57068
0.295717
0.365898
0.444372
0.524963
0.602558
0.675818
0.745637
0.813586
0.880922
0.948301
1.01588
1.08356
1.15119
1.21859
1.27807
1.33647
1.39499
1.45369
1.51262
1.57182
1.63136
1.6913
1.75169
1.81262
1.87429
1.9375
2.0056
2.09217
2.2459
2.56353
0.310444
0.380484
0.45871
0.538861
0.615998
0.688961
0.758699
0.826708
0.894154
0.961615
1.02921
1.09684
1.16433
1.23086
1.2881
1.34544
1.40294
1.46063
1.51858
1.57685
1.63549
1.69457
1.75416
1.81436
1.87537
1.93806
2.00591
2.09279
2.24701
2.55627
0.325335
0.395316
0.473326
0.553042
0.629712
0.702367
0.772003
0.840056
0.907598
0.975135
1.04275
1.11032
1.17768
1.242
1.29814
1.3544
1.41084
1.46751
1.52447
1.58179
1.63952
1.69774
1.75652
1.81598
1.87633
1.93849
2.0061
2.09331
2.24796
2.54889
0.340419
0.410405
0.488227
0.567509
0.6437
0.716027
0.785548
0.853632
0.921262
0.988871
1.05651
1.12402
1.19124
1.25317
1.30817
1.36333
1.4187
1.47433
1.53029
1.58664
1.64345
1.7008
1.75876
1.81746
1.87715
1.93878
2.00616
2.09371
2.24872
2.54139
0.35572
0.425766
0.503415
0.582259
0.657959
0.729947
0.799337
0.867442
0.93515
1.00283
1.07048
1.13795
1.20504
1.26438
1.31822
1.37225
1.42652
1.4811
1.53603
1.5914
1.64728
1.70374
1.76088
1.81881
1.87782
1.93893
2.00609
2.09398
2.2493
2.53376
0.371262
0.441412
0.518899
0.597297
0.672494
0.744129
0.813375
0.881488
0.94927
1.01701
1.08468
1.15211
1.21908
1.27561
1.32826
1.38115
1.43431
1.48781
1.5417
1.59608
1.651
1.70656
1.76285
1.82001
1.87834
1.93892
2.00586
2.0941
2.24968
2.52599
0.387066
0.457354
0.534686
0.61263
0.687305
0.758573
0.827665
0.89578
0.963628
1.03144
1.09913
1.16651
1.23336
1.28688
1.33832
1.39003
1.44205
1.49445
1.54729
1.60065
1.65461
1.70925
1.76469
1.82106
1.8787
1.93874
2.00548
2.09407
2.24986
2.51806
0.403154
0.473606
0.550784
0.62826
0.702399
0.773286
0.842214
0.910323
0.978233
1.04611
1.11382
1.18116
1.24789
1.29819
1.34838
1.39889
1.44976
1.50104
1.5528
1.60512
1.6581
1.71181
1.76638
1.82194
1.87888
1.9384
2.00493
2.09387
2.24982
2.50998
0.419546
0.490182
0.567202
0.644195
0.717781
0.788275
0.857026
0.925121
0.993094
1.06103
1.12877
1.19607
1.26095
1.30953
1.35845
1.40774
1.45742
1.50756
1.55822
1.6095
1.66146
1.71422
1.76789
1.82265
1.87888
1.93785
2.0042
2.0935
2.24955
2.50174
0.43626
0.507093
0.583951
0.660443
0.733461
0.803544
0.872111
0.940187
1.00822
1.07622
1.14399
1.21126
1.27368
1.3209
1.36853
1.41656
1.46503
1.51401
1.56355
1.61375
1.66469
1.71649
1.76925
1.82318
1.87868
1.93712
2.00327
2.09294
2.24904
2.49331
0.453315
0.524356
0.601043
0.677017
0.749442
0.819102
0.887476
0.955529
1.02362
1.09168
1.15949
1.22673
1.28647
1.33231
1.37861
1.42536
1.4726
1.52038
1.56878
1.61789
1.66779
1.71859
1.77043
1.82351
1.87828
1.93618
2.00214
2.09218
2.24826
2.4847
0.470732
0.541984
0.618487
0.693922
0.765738
0.83496
0.903131
0.971156
1.0393
1.10744
1.17528
1.2425
1.29933
1.34375
1.38868
1.43413
1.48011
1.52668
1.57391
1.6219
1.67074
1.72053
1.77143
1.82364
1.87766
1.93501
2.0008
2.0912
2.24723
2.47588
0.488526
0.559992
0.636299
0.711175
0.78236
0.851127
0.919087
0.987079
1.05528
1.12349
1.19137
1.25858
1.31226
1.35522
1.39876
1.44286
1.48756
1.53289
1.57893
1.62578
1.67352
1.72229
1.77222
1.82355
1.87682
1.93362
1.99924
2.08999
2.24591
2.46686
0.506716
0.578395
0.654491
0.728784
0.799317
0.867617
0.935356
1.00331
1.07157
1.13985
1.20778
1.27498
1.32524
1.36672
1.40883
1.45157
1.49494
1.53901
1.58384
1.62951
1.67615
1.72386
1.77281
1.82324
1.87574
1.93198
1.99743
2.08855
2.2443
2.4576
0.525323
0.59721
0.673079
0.746766
0.816626
0.884442
0.951951
1.01987
1.08818
1.15654
1.22453
1.29173
1.33829
1.37823
1.41889
1.46022
1.50225
1.54503
1.58862
1.6331
1.6786
1.72524
1.77318
1.8227
1.87441
1.93009
1.99537
2.08684
2.24237
2.44811
0.544364
0.616454
0.692079
0.765137
0.8343
0.901618
0.968888
1.03676
1.10513
1.17358
1.24163
1.30883
1.35139
1.38977
1.42893
1.46883
1.50949
1.55094
1.59326
1.63654
1.68088
1.72641
1.77332
1.82191
1.87282
1.92794
1.99305
2.08487
2.24012
2.43837
0.563859
0.636144
0.711508
0.783911
0.852356
0.919159
0.986185
1.05402
1.12245
1.19098
1.2591
1.32632
1.36454
1.40131
1.43894
1.47738
1.51663
1.55674
1.59776
1.63979
1.68294
1.72736
1.77323
1.82086
1.87096
1.9255
1.99045
2.0826
2.23752
2.42836
0.583828
0.656302
0.731385
0.803108
0.870813
0.937086
1.00386
1.07164
1.14014
1.20877
1.27696
1.34373
1.37773
1.41285
1.44892
1.48586
1.52368
1.5624
1.60211
1.64287
1.68482
1.72809
1.77288
1.81954
1.86881
1.92278
1.98756
2.08004
2.23457
2.41806
0.604294
0.676946
0.751729
0.822748
0.88969
0.955419
1.02193
1.08967
1.15823
1.22696
1.29523
1.35875
1.39096
1.42439
1.45885
1.49426
1.53061
1.56793
1.60628
1.64576
1.68648
1.72857
1.77227
1.81794
1.86637
1.91975
1.98437
2.07716
2.23124
2.40747
0.625278
0.6981
0.772563
0.842854
0.90901
0.974178
1.04042
1.10811
1.17674
1.24558
1.31395
1.37383
1.4042
1.4359
1.46872
1.50257
1.53742
1.57331
1.61029
1.64845
1.68791
1.72881
1.7714
1.81605
1.86362
1.91641
1.98087
2.07394
2.22751
2.39657
0.646806
0.719786
0.793913
0.863449
0.928796
0.99339
1.05936
1.127
1.19571
1.26467
1.33313
1.38897
1.41745
1.44738
1.47852
1.51077
1.5441
1.57852
1.6141
1.65093
1.6891
1.72879
1.77024
1.81385
1.86056
1.91275
1.97703
2.07037
2.22337
2.38533
0.668904
0.742031
0.815801
0.884558
0.949076
1.01308
1.07877
1.14637
1.21516
1.28425
1.35282
1.40414
1.43069
1.4588
1.48822
1.51884
1.55062
1.58356
1.61771
1.65317
1.69004
1.72849
1.76878
1.81135
1.85717
1.90875
1.97285
2.06644
2.2188
2.37374
0.691601
0.764863
0.838258
0.906214
0.969881
1.03329
1.0987
1.16626
1.23514
1.30435
1.37304
1.41933
1.44389
1.47015
1.49782
1.52677
1.55697
1.5884
1.6211
1.65517
1.69072
1.72791
1.76702
1.80852
1.85345
1.9044
1.96832
2.06213
2.21378
2.36179
0.714927
0.788314
0.861317
0.928447
0.991245
1.05404
1.11917
1.1867
1.25567
1.32503
1.39385
1.43452
1.45704
1.48139
1.50727
1.53454
1.56312
1.59302
1.62426
1.65692
1.69113
1.72704
1.76495
1.80537
1.84937
1.8997
1.96342
2.05743
2.20829
2.34946
0.738918
0.812418
0.885011
0.951294
1.01321
1.07539
1.14024
1.20773
1.27682
1.34633
1.41528
1.44965
1.47009
1.4925
1.51656
1.54211
1.56906
1.59741
1.62716
1.6584
1.69124
1.72587
1.76257
1.80187
1.84495
1.89464
1.95815
2.0523
2.20231
2.33672
0.763612
0.837215
0.909382
0.974798
1.03581
1.09737
1.16195
1.22943
1.29863
1.36831
1.43739
1.4647
1.483
1.50343
1.52565
1.54945
1.57476
1.60153
1.62979
1.65961
1.69107
1.72439
1.75985
1.79805
1.84018
1.88922
1.9525
2.04677
2.19584
2.32357
0.789054
0.862748
0.934474
0.999006
1.0591
1.12005
1.18436
1.25183
1.32118
1.39102
1.46025
1.47961
1.49574
1.51416
1.5345
1.55655
1.5802
1.6054
1.63215
1.66052
1.69061
1.7226
1.75682
1.79387
1.83506
1.88342
1.94645
2.04079
2.18884
2.30998
0.815293
0.889066
0.960339
1.02397
1.08315
1.14348
1.20755
1.27503
1.34452
1.41456
1.48361
1.49432
1.50823
1.52462
1.54307
1.56336
1.58535
1.60896
1.63421
1.66113
1.68983
1.7205
1.75347
1.78938
1.82959
1.87727
1.94003
2.03437
2.18131
2.29593
0.842386
0.916228
0.987036
1.04976
1.10802
1.16775
1.23158
1.29911
1.36877
1.43899
1.50051
1.50875
1.52042
1.53476
1.55132
1.56984
1.59017
1.61222
1.63596
1.66144
1.68877
1.7181
1.74981
1.78456
1.82379
1.87076
1.93321
2.02751
2.17323
2.28142
0.870398
0.944299
1.01464
1.07644
1.13379
1.19294
1.25658
1.32418
1.39402
1.46443
1.51707
1.5228
1.53223
1.54451
1.55919
1.57596
1.59465
1.61514
1.63741
1.66146
1.6874
1.71541
1.74586
1.77944
1.81767
1.86392
1.92602
2.02019
2.16459
2.26641
0.899408
0.973358
1.04322
1.10412
1.16057
1.21918
1.28266
1.35036
1.4204
1.491
1.53315
1.53637
1.54355
1.55381
1.56663
1.58169
1.59876
1.61774
1.63855
1.6612
1.68578
1.71247
1.74165
1.77405
1.81125
1.85675
1.91847
2.01243
2.15537
2.2509
0.929507
1.0035
1.07288
1.13288
1.18847
1.24659
1.30997
1.37781
1.44807
1.51883
1.5486
1.54933
1.5543
1.56258
1.5736
1.58698
1.60251
1.62
1.63939
1.66068
1.68392
1.70931
1.73722
1.76844
1.8046
1.84932
1.91058
2.00422
2.14556
2.23485
0.960806
1.03484
1.10375
1.16287
1.21765
1.27535
1.3387
1.40672
1.4772
1.54808
1.56323
1.56153
1.56436
1.57074
1.58003
1.59183
1.60586
1.62195
1.63998
1.65994
1.68187
1.70598
1.73263
1.76266
1.79776
1.84165
1.90238
1.99558
2.13516
2.21825
0.99345
1.06751
1.13597
1.19426
1.2483
1.30568
1.36908
1.43732
1.508
1.57893
1.5768
1.57279
1.57361
1.5782
1.58588
1.5962
1.60885
1.62361
1.64036
1.65904
1.67971
1.70255
1.72797
1.7568
1.79083
1.83382
1.89395
1.98655
2.12415
2.20105
1.02759
1.1017
1.16974
1.22726
1.28069
1.33788
1.40143
1.46992
1.54075
1.60225
1.58904
1.58291
1.58191
1.58489
1.59112
1.60011
1.6115
1.62504
1.64058
1.65807
1.67753
1.69915
1.72334
1.75097
1.78388
1.82594
1.88534
1.97716
2.11253
2.1832
1.06352
1.13765
1.2053
1.26215
1.31511
1.37226
1.43606
1.5048
1.57563
1.61511
1.5997
1.59173
1.58916
1.59077
1.59577
1.60359
1.61387
1.62632
1.64076
1.65713
1.67545
1.6959
1.71888
1.74532
1.77709
1.81815
1.87669
1.9675
2.10034
2.16466
1.10139
1.17567
1.24306
1.29943
1.35216
1.40949
1.47363
1.54253
1.61311
1.62544
1.60831
1.59893
1.59516
1.59571
1.59973
1.60663
1.61597
1.62748
1.64096
1.65632
1.67358
1.69291
1.71474
1.74
1.77062
1.8106
1.86814
1.95768
2.08759
2.14538
1.14213
1.21631
1.28337
1.33934
1.39205
1.44971
1.51416
1.58292
1.65272
1.63318
1.61492
1.60463
1.60008
1.59992
1.60324
1.60944
1.61806
1.62879
1.64144
1.6559
1.67219
1.69048
1.71121
1.73533
1.76479
1.80365
1.86004
1.94798
2.07444
2.12528
1.18523
1.26005
1.32743
1.38369
1.43693
1.49523
1.55988
1.62801
1.66673
1.63648
1.61809
1.60768
1.603
1.60264
1.60568
1.61151
1.61968
1.62988
1.64191
1.65565
1.67114
1.68853
1.70828
1.73134
1.75971
1.79743
1.85253
1.93857
2.06102
2.10446
1.23529
1.3086
1.37507
1.431
1.48442
1.54275
1.60649
1.67236
1.66783
1.63834
1.62054
1.61055
1.60612
1.60586
1.60887
1.61452
1.6224
1.6322
1.64372
1.65687
1.67165
1.68824
1.7071
1.72919
1.75652
1.7931
1.84682
1.93058
2.04818
2.08294
1.28562
1.36292
1.43277
1.49147
1.54659
1.60499
1.66661
1.69801
1.6554
1.62948
1.61436
1.60639
1.60346
1.60431
1.60811
1.61431
1.62252
1.63247
1.644
1.657
1.67151
1.68771
1.70606
1.72753
1.7541
1.78975
1.84213
1.92346
2.03577
2.06185
1.36471
1.42749
1.48956
1.54341
1.5936
1.64497
1.69586
1.69384
1.65691
1.63428
1.6213
1.61476
1.61274
1.61412
1.61818
1.62442
1.6325
1.64217
1.65328
1.66574
1.67961
1.69504
1.71252
1.73302
1.75853
1.79295
1.84366
1.92187
2.02723
2.0406
1.42133
1.51659
1.59656
1.65494
1.69801
1.72447
1.684
1.64091
1.61568
1.60226
1.59623
1.595
1.59717
1.6019
1.60868
1.61716
1.6271
1.63833
1.65075
1.66431
1.67908
1.69525
1.71327
1.7341
1.75969
1.7938
1.84353
1.91938
2.01954
2.02585
1.63001
1.60415
1.62349
1.63793
1.64512
1.65326
1.66122
1.66193
1.6557
1.64938
1.64553
1.64427
1.6453
1.64833
1.6531
1.65941
1.66708
1.67598
1.68599
1.69709
1.70933
1.72286
1.73816
1.75615
1.7787
1.8094
1.85469
1.92346
2.01091
1.99903
1.9107
1.75231
1.68602
1.66889
1.6672
1.66626
1.65548
1.63858
1.62541
1.61769
1.61434
1.61428
1.61684
1.62156
1.62812
1.6363
1.64591
1.65681
1.66893
1.68225
1.69685
1.71295
1.73106
1.75221
1.77838
1.81324
1.86317
1.93608
2.02355
2.00176
1.7955
1.75237
1.7153
1.68242
1.66062
1.6521
1.65637
1.66998
1.68821
1.70549
1.71513
1.7163
1.71504
1.71459
1.7158
1.7188
1.72349
1.72974
1.73744
1.74651
1.75698
1.76902
1.78305
1.79998
1.82167
1.85156
1.89563
1.96098
2.03792
2.00124
1.8734
1.86005
1.82165
1.78022
1.74751
1.72889
1.72468
1.7312
1.74069
1.73656
1.72751
1.72129
1.71801
1.71725
1.71867
1.72201
1.72708
1.73369
1.74172
1.7511
1.76185
1.77413
1.78837
1.80544
1.82715
1.85687
1.90045
1.9647
2.03895
1.99681
1.85429
1.86859
1.84902
1.81116
1.77369
1.7474
1.73562
1.73636
1.74568
1.75959
1.76534
1.75892
1.75492
1.75328
1.75368
1.75588
1.75971
1.76498
1.77161
1.77951
1.78871
1.79934
1.81181
1.82698
1.8466
1.87402
1.91503
1.97626
2.04627
1.99725
1.85658
1.88969
1.88361
1.85028
1.81095
1.77982
1.76236
1.75773
1.76239
1.77261
1.77476
1.76937
1.76656
1.76582
1.76685
1.76944
1.77344
1.77872
1.78518
1.79278
1.80154
1.81159
1.82333
1.83762
1.85618
1.88239
1.92201
1.98171
2.04941
1.99596
1.8506
1.89448
1.89989
1.87245
1.83373
1.8001
1.77882
1.77015
1.77107
1.77806
1.78436
1.78023
1.77839
1.77834
1.77981
1.78263
1.78668
1.79184
1.79804
1.80523
1.81343
1.8228
1.83371
1.84701
1.86446
1.88945
1.92783
1.98627
2.05206
1.99503
1.84651
1.89721
1.91128
1.88932
1.85211
1.81731
1.79349
1.78181
1.77976
1.78406
1.78889
1.78605
1.78521
1.78591
1.78792
1.79108
1.79529
1.80047
1.80655
1.81348
1.82129
1.83014
1.84041
1.85297
1.86957
1.89367
1.93121
1.98849
2.05249
1.99345
1.84207
1.8969
1.91749
1.90039
1.86508
1.82997
1.80456
1.79073
1.78643
1.78855
1.79197
1.79023
1.79025
1.7916
1.79406
1.79751
1.80187
1.80704
1.81299
1.81967
1.82713
1.83552
1.84522
1.85712
1.87302
1.89642
1.93263
1.98618
2.05159
1.99164
1.8381
1.89549
1.92101
1.90805
1.87468
1.83971
1.81332
1.79797
1.79194
1.79237
1.7936
1.79281
1.79359
1.79553
1.7984
1.80212
1.8066
1.81177
1.81761
1.82409
1.83123
1.83922
1.84844
1.85981
1.87515
1.89805
1.92965
1.98475
2.05097
1.98955
1.8344
1.89335
1.92263
1.9132
1.88166
1.84705
1.82008
1.80365
1.79634
1.79544
1.79445
1.79447
1.79591
1.79834
1.80158
1.80553
1.81012
1.8153
1.82104
1.82731
1.83418
1.84182
1.85064
1.86156
1.87647
1.89491
1.92745
1.98385
2.05048
1.98733
1.83102
1.89087
1.92307
1.91665
1.8868
1.85264
1.82532
1.80811
1.79985
1.79625
1.79474
1.79544
1.79745
1.80032
1.80388
1.80803
1.81272
1.8179
1.82355
1.82966
1.83629
1.84363
1.85211
1.86268
1.87425
1.8923
1.9258
1.98328
2.05004
1.98501
1.82791
1.88824
1.92275
1.91891
1.89059
1.85688
1.82937
1.81133
1.80027
1.79556
1.79467
1.79594
1.79843
1.80169
1.80553
1.80986
1.81463
1.81982
1.8254
1.83137
1.83779
1.84488
1.85308
1.8612
1.87154
1.89021
1.92454
1.98292
2.04959
1.98266
1.82505
1.88556
1.92192
1.92033
1.89339
1.86012
1.82959
1.80965
1.79899
1.79474
1.79436
1.79609
1.79899
1.80259
1.80667
1.81117
1.81603
1.82123
1.82674
1.83259
1.83885
1.84572
1.85206
1.85858
1.8693
1.88849
1.92355
1.98269
2.04911
1.98031
1.82241
1.8829
1.92076
1.92114
1.89545
1.85846
1.828
1.8082
1.79778
1.79388
1.79388
1.796
1.79924
1.80313
1.80744
1.81208
1.81701
1.82222
1.82769
1.83343
1.83956
1.84491
1.84965
1.85638
1.86741
1.88706
1.92275
1.98255
2.04862
1.978
1.81996
1.88028
1.91938
1.92153
1.89433
1.85718
1.82671
1.80694
1.79666
1.793
1.79329
1.79572
1.79926
1.80339
1.80789
1.81266
1.81767
1.82289
1.82832
1.83399
1.83882
1.84277
1.8476
1.8545
1.8658
1.88586
1.92212
1.98249
2.04811
1.97575
1.8177
1.87772
1.91786
1.9216
1.89318
1.85622
1.82569
1.80586
1.79563
1.79212
1.79263
1.79532
1.7991
1.80344
1.8081
1.81299
1.81806
1.8233
1.82871
1.83335
1.83696
1.84092
1.84582
1.85288
1.86442
1.88484
1.92162
1.98249
2.04759
1.97356
1.81558
1.87524
1.91624
1.92135
1.8923
1.85552
1.82489
1.80494
1.79468
1.79125
1.79193
1.79481
1.79879
1.8033
1.8081
1.8131
1.81823
1.82349
1.8283
1.83178
1.83535
1.83932
1.84428
1.85147
1.86322
1.88395
1.92121
1.98253
2.04707
1.97145
1.8136
1.87284
1.91457
1.91994
1.89164
1.85503
1.82428
1.80415
1.79381
1.7904
1.7912
1.79423
1.79837
1.80303
1.80796
1.81304
1.81822
1.82351
1.82698
1.83038
1.83393
1.83791
1.84292
1.85022
1.86215
1.8832
1.92089
1.98261
2.04656
1.96941
1.81174
1.87051
1.91286
1.91865
1.89114
1.85471
1.82381
1.80348
1.79301
1.78959
1.79044
1.79359
1.79786
1.80265
1.80768
1.81284
1.81807
1.8225
1.82581
1.82915
1.83266
1.83665
1.84172
1.84911
1.86121
1.88254
1.92065
1.98274
2.04605
1.96745
1.80998
1.86826
1.91114
1.91749
1.89076
1.85453
1.82346
1.8029
1.79227
1.78879
1.78968
1.79291
1.79729
1.80217
1.8073
1.81252
1.8178
1.8215
1.82474
1.82804
1.83152
1.83551
1.84063
1.8481
1.86037
1.88195
1.92047
1.98289
2.04555
1.96556
1.80832
1.86607
1.90941
1.91643
1.89049
1.85446
1.82322
1.80241
1.79159
1.78803
1.78892
1.79221
1.79666
1.80163
1.80682
1.81211
1.81742
1.82057
1.82375
1.82701
1.83049
1.83449
1.83963
1.84719
1.8596
1.88145
1.92034
1.98308
2.04505
1.96373
1.80674
1.86396
1.90768
1.91545
1.89029
1.85447
1.82307
1.80199
1.79097
1.78729
1.78816
1.79148
1.79599
1.80103
1.80629
1.81162
1.8166
1.8197
1.82284
1.82607
1.82952
1.83353
1.83872
1.84635
1.8589
1.88099
1.92026
1.98328
2.04456
1.96198
1.80523
1.8619
1.90596
1.91452
1.89014
1.85454
1.82298
1.80164
1.79039
1.78658
1.7874
1.79073
1.79529
1.80039
1.80569
1.81107
1.81581
1.81887
1.82198
1.82518
1.82863
1.83265
1.83787
1.84558
1.85827
1.88059
1.92022
1.9835
2.04407
1.96029
1.80379
1.8599
1.90425
1.91363
1.89003
1.85468
1.82296
1.80134
1.78985
1.7859
1.78666
1.78998
1.79457
1.79971
1.80505
1.81047
1.81504
1.81807
1.82115
1.82434
1.82779
1.83182
1.83708
1.84486
1.85767
1.88024
1.92022
1.98374
2.04359
1.95865
1.8024
1.85796
1.90256
1.91278
1.88996
1.85485
1.82298
1.80108
1.78935
1.78524
1.78592
1.78923
1.79383
1.799
1.80438
1.80982
1.81429
1.8173
1.82037
1.82355
1.82699
1.83103
1.83632
1.84417
1.85713
1.87992
1.92024
1.98399
2.0431
1.95707
1.80107
1.85608
1.90087
1.91194
1.8899
1.85505
1.82305
1.80088
1.78888
1.7846
1.78519
1.78847
1.79308
1.79827
1.80368
1.80914
1.81355
1.81654
1.8196
1.82277
1.82622
1.83028
1.83561
1.84353
1.85661
1.87963
1.92029
1.98425
2.04262
1.95553
1.79978
1.85423
1.89921
1.91113
1.88986
1.85528
1.82315
1.8007
1.78845
1.78398
1.78446
1.78772
1.79232
1.79753
1.80296
1.80844
1.81282
1.81581
1.81886
1.82202
1.82548
1.82955
1.83492
1.84291
1.85612
1.87938
1.92037
1.98452
2.04214
1.95405
1.79853
1.85244
1.89756
1.91032
1.88982
1.85552
1.82328
1.80056
1.78804
1.78338
1.78376
1.78696
1.79156
1.79678
1.80223
1.80772
1.81209
1.81507
1.81812
1.8213
1.82476
1.82885
1.83426
1.84232
1.85566
1.87914
1.92045
1.98479
2.04165
1.9526
1.79733
1.85069
1.89592
1.90952
1.88979
1.85578
1.82343
1.80044
1.78765
1.7828
1.78307
1.78621
1.79079
1.79601
1.80147
1.80699
1.81137
1.81435
1.81741
1.82058
1.82406
1.82817
1.83362
1.84175
1.85522
1.87893
1.92056
1.98506
2.04116
1.9512
1.79616
1.84897
1.89431
1.90873
1.88975
1.85605
1.8236
1.80036
1.7873
1.78224
1.78239
1.78547
1.79003
1.79525
1.80071
1.80624
1.81066
1.81365
1.8167
1.81988
1.82337
1.82751
1.83299
1.8412
1.8548
1.87873
1.92069
1.98533
2.04067
1.94983
1.79502
1.8473
1.89271
1.90793
1.8897
1.85631
1.8238
1.80028
1.78696
1.7817
1.78172
1.78474
1.78927
1.79448
1.79995
1.80549
1.80994
1.81294
1.816
1.81919
1.8227
1.82686
1.83238
1.84066
1.8544
1.87855
1.92081
1.9856
2.04017
1.94849
1.79391
1.84566
1.89113
1.90713
1.88966
1.85659
1.824
1.80023
1.78664
1.78118
1.78106
1.784
1.78851
1.79372
1.79919
1.80472
1.80923
1.81224
1.81531
1.81851
1.82204
1.82622
1.83179
1.84014
1.854
1.87838
1.92095
1.98586
2.03967
1.94719
1.79283
1.84405
1.88957
1.90634
1.8896
1.85686
1.82422
1.8002
1.78634
1.78066
1.78041
1.78329
1.78776
1.79295
1.79842
1.80396
1.80853
1.81154
1.81462
1.81785
1.82138
1.82559
1.8312
1.83963
1.85362
1.87822
1.92109
1.98612
2.03916
1.94592
1.79178
1.84248
1.88802
1.90554
1.88953
1.85713
1.82444
1.80019
1.78606
1.78017
1.77978
1.78257
1.78701
1.79219
1.79765
1.80319
1.80782
1.81085
1.81394
1.81718
1.82073
1.82497
1.83062
1.83912
1.85326
1.87808
1.92124
1.98636
2.03865
1.94467
1.79075
1.84094
1.8865
1.90473
1.88944
1.8574
1.82467
1.80019
1.78579
1.77969
1.77916
1.78187
1.78627
1.79143
1.79689
1.80244
1.80711
1.81016
1.81327
1.81652
1.82009
1.82436
1.83006
1.83863
1.85289
1.87794
1.9214
1.98661
2.03813
1.94346
1.78974
1.83943
1.88498
1.90392
1.88934
1.85765
1.82491
1.8002
1.78554
1.77922
1.77855
1.78118
1.78553
1.79068
1.79613
1.80167
1.80642
1.80947
1.8126
1.81586
1.81945
1.82375
1.82949
1.83815
1.85254
1.87781
1.92155
1.98684
2.03761
1.94226
1.78875
1.83794
1.88349
1.9031
1.88923
1.8579
1.82515
1.80022
1.7853
1.77877
1.77795
1.78049
1.7848
1.78993
1.79537
1.80091
1.80572
1.80879
1.81193
1.81521
1.81882
1.82315
1.82893
1.83766
1.85219
1.87768
1.92171
1.98707
2.03707
1.94109
1.78779
1.83648
1.88201
1.90228
1.88912
1.85815
1.8254
1.80025
1.78508
1.77833
1.77736
1.77981
1.78408
1.78918
1.79462
1.80016
1.80503
1.80811
1.81126
1.81456
1.8182
1.82255
1.82838
1.83718
1.85185
1.87757
1.92188
1.98729
2.03653
1.93994
1.78684
1.83505
1.88055
1.90145
1.88897
1.85839
1.82564
1.80029
1.78487
1.7779
1.77678
1.77915
1.78337
1.78844
1.79387
1.7994
1.80434
1.80744
1.81061
1.81392
1.81758
1.82196
1.82783
1.83672
1.85152
1.87745
1.92204
1.9875
2.03599
1.93881
1.78591
1.83364
1.8791
1.90061
1.88883
1.85862
1.82589
1.80035
1.78467
1.77748
1.77622
1.77849
1.78265
1.78771
1.79313
1.79865
1.80365
1.80676
1.80994
1.81329
1.81696
1.82137
1.82729
1.83625
1.85119
1.87734
1.9222
1.98771
2.03543
1.9377
1.785
1.83226
1.87767
1.89978
1.88866
1.85883
1.82614
1.8004
1.78447
1.77708
1.77565
1.77784
1.78195
1.78698
1.79239
1.79791
1.80297
1.80609
1.80929
1.81264
1.81634
1.82078
1.82675
1.83579
1.85086
1.87724
1.92237
1.98789
2.03488
1.93661
1.7841
1.8309
1.87625
1.89893
1.88848
1.85905
1.82639
1.80047
1.78429
1.77669
1.77511
1.7772
1.78126
1.78627
1.79165
1.79717
1.80228
1.80543
1.80864
1.81201
1.81573
1.8202
1.82622
1.83534
1.85054
1.87714
1.92253
1.98808
2.03432
1.93553
1.78322
1.82956
1.87485
1.89809
1.88829
1.85924
1.82664
1.80054
1.78413
1.7763
1.77457
1.77657
1.78058
1.78555
1.79093
1.79644
1.80161
1.80477
1.80799
1.81138
1.81513
1.81962
1.82568
1.83488
1.85023
1.87704
1.92269
1.98825
2.03374
1.93447
1.78236
1.82824
1.87346
1.89723
1.88808
1.85943
1.82688
1.80063
1.78397
1.77593
1.77405
1.77595
1.77989
1.78485
1.79021
1.79571
1.80094
1.80411
1.80735
1.81076
1.81452
1.81904
1.82516
1.83443
1.84992
1.87695
1.92285
1.98842
2.03317
1.93343
1.78151
1.82694
1.87209
1.89637
1.88787
1.85962
1.82713
1.80071
1.78382
1.77556
1.77353
1.77533
1.77922
1.78414
1.78949
1.79498
1.80026
1.80345
1.80671
1.81014
1.81392
1.81847
1.82463
1.83399
1.84961
1.87686
1.92301
1.98857
2.03258
1.9324
1.78067
1.82567
1.87073
1.8955
1.88763
1.85978
1.82736
1.8008
1.78368
1.77522
1.77302
1.77472
1.77856
1.78345
1.78878
1.79427
1.7996
1.8028
1.80608
1.80951
1.81331
1.81791
1.82411
1.83355
1.84931
1.87677
1.92317
1.98871
2.032
1.93138
1.77985
1.82441
1.86938
1.89464
1.88739
1.85995
1.8276
1.80089
1.78355
1.77487
1.77252
1.77412
1.7779
1.78276
1.78807
1.79355
1.79893
1.80215
1.80545
1.8089
1.81272
1.81733
1.82359
1.83311
1.849
1.87669
1.92333
1.98885
2.03141
1.93039
1.77904
1.82317
1.86805
1.89377
1.88713
1.8601
1.82784
1.80099
1.78342
1.77454
1.77203
1.77353
1.77725
1.78208
1.78738
1.79285
1.79827
1.80151
1.80481
1.80828
1.81213
1.81677
1.82307
1.83267
1.84871
1.8766
1.92348
1.98898
2.03081
1.92939
1.77824
1.82195
1.86673
1.8929
1.88687
1.86024
1.82808
1.80109
1.78331
1.77422
1.77155
1.77294
1.77661
1.7814
1.78668
1.79214
1.79762
1.80087
1.80418
1.80767
1.81153
1.81621
1.82256
1.83224
1.84842
1.87653
1.92363
1.98909
2.03021
1.92841
1.77746
1.82074
1.86542
1.89193
1.88658
1.86037
1.82831
1.80119
1.7832
1.7739
1.77108
1.77237
1.77597
1.78073
1.786
1.79145
1.79693
1.80023
1.80356
1.80706
1.81094
1.81565
1.82205
1.83181
1.84813
1.87645
1.92378
1.9892
2.02961
1.92745
1.77668
1.81956
1.86413
1.89096
1.88629
1.86049
1.82853
1.80131
1.7831
1.77359
1.77061
1.7718
1.77534
1.78006
1.78532
1.79076
1.79624
1.79959
1.80293
1.80645
1.81036
1.8151
1.82154
1.83139
1.84784
1.87638
1.92394
1.9893
2.02899
1.92649
1.77592
1.81838
1.86285
1.88998
1.88598
1.86059
1.82876
1.80141
1.783
1.7733
1.77016
1.77124
1.77471
1.77941
1.78464
1.79007
1.79555
1.79896
1.80232
1.80585
1.80978
1.81455
1.82104
1.83097
1.84756
1.87631
1.92408
1.98938
2.02838
1.92555
1.77517
1.81723
1.86158
1.889
1.88567
1.86069
1.82898
1.80153
1.78291
1.773
1.76971
1.77068
1.7741
1.77875
1.78397
1.78939
1.79486
1.79833
1.8017
1.80525
1.8092
1.81399
1.82053
1.83054
1.84727
1.87623
1.92423
1.98947
2.02776
1.92462
1.77443
1.81609
1.86032
1.88803
1.88535
1.86078
1.8292
1.80164
1.78283
1.77272
1.76927
1.77014
1.77349
1.77811
1.7833
1.78871
1.79418
1.7977
1.80109
1.80465
1.80862
1.81344
1.82003
1.83013
1.847
1.87616
1.92437
1.98954
2.02714
1.92369
1.7737
1.81497
1.85908
1.88706
1.88502
1.86087
1.82941
1.80176
1.78275
1.77245
1.76883
1.76959
1.77288
1.77747
1.78265
1.78804
1.7935
1.79708
1.80048
1.80405
1.80804
1.81289
1.81954
1.82971
1.84672
1.87609
1.92451
1.9896
2.02652
1.92278
1.77298
1.81386
1.85785
1.88609
1.88467
1.86094
1.82962
1.80188
1.78269
1.77218
1.76841
1.76906
1.77228
1.77683
1.78199
1.78738
1.79283
1.79646
1.79987
1.80346
1.80747
1.81235
1.81904
1.8293
1.84645
1.87603
1.92465
1.98966
2.02589
1.92187
1.77227
1.81276
1.85662
1.88512
1.88431
1.861
1.82982
1.80201
1.78262
1.77191
1.76799
1.76854
1.77169
1.77621
1.78134
1.78672
1.79216
1.79584
1.79926
1.80287
1.8069
1.81182
1.81855
1.82889
1.84619
1.87597
1.92478
1.98971
2.02526
1.92097
1.77157
1.81168
1.85541
1.88416
1.88395
1.86106
1.83002
1.80213
1.78256
1.77167
1.76758
1.76802
1.77111
1.77558
1.78069
1.78606
1.79151
1.79523
1.79866
1.80229
1.80633
1.81127
1.81806
1.82848
1.84591
1.8759
1.92491
1.98975
2.02462
1.92008
1.77088
1.81061
1.85421
1.8832
1.88358
1.8611
1.83022
1.80225
1.78251
1.77142
1.76717
1.76751
1.77053
1.77496
1.78006
1.78541
1.79084
1.79462
1.79806
1.8017
1.80577
1.81074
1.81757
1.82808
1.84565
1.87585
1.92504
1.98978
2.02398
1.91919
1.7702
1.80956
1.85302
1.88224
1.8832
1.86113
1.83041
1.80238
1.78246
1.77118
1.76678
1.767
1.76995
1.77435
1.77942
1.78477
1.79019
1.79401
1.79747
1.80112
1.80521
1.8102
1.81708
1.82768
1.84539
1.87579
1.92517
1.9898
2.02335
1.91832
1.76952
1.80852
1.85185
1.88128
1.88282
1.86117
1.83059
1.80251
1.78241
1.77094
1.76639
1.7665
1.76938
1.77374
1.77879
1.78412
1.78954
1.79341
1.79687
1.80054
1.80464
1.80968
1.81661
1.82729
1.84513
1.87573
1.9253
1.98982
2.0227
1.91745
1.76886
1.80749
1.85068
1.88033
1.88242
1.86118
1.83078
1.80264
1.78237
1.77072
1.766
1.766
1.76882
1.77313
1.77817
1.78349
1.7889
1.79281
1.79628
1.79997
1.80409
1.80914
1.81612
1.82689
1.84489
1.87568
1.92542
1.98983
2.02206
1.91659
1.7682
1.80647
1.84952
1.87937
1.88201