/*--------------------------------*- C++ -*----------------------------------*\
  =========                 |
  \\      /  F ield         | OpenFOAM: The Open Source CFD Toolbox
   \\    /   O peration     | Website:  https://openfoam.org
    \\  /    A nd           | Version:  8
     \\/     M anipulation  |
\*---------------------------------------------------------------------------*/
FoamFile
{
    version     2.0;
    format      ascii;
    class       volScalarField;
    location    "1.1";
    object      lambda;
}
// * * * * * * * * * * * * * * * * * * * * * * * * * * * * * * * * * * * * * //

dimensions      [0 0 0 0 0 0 0];

internalField   nonuniform List<scalar> 
6300
(
2.8187
2.54221
2.35724
2.21636
2.09896
1.9989
1.91359
1.84072
1.77802
1.72346
1.67545
1.63277
1.59449
1.55987
1.52837
1.49952
1.47297
1.44841
1.42561
1.40436
1.38449
1.36586
1.34834
1.33184
1.31624
1.30144
1.28709
1.27163
1.24745
1.17611
2.45875
2.35207
2.24267
2.14429
2.05193
1.96615
1.88908
1.82141
1.76236
1.71059
1.6648
1.62393
1.58713
1.55375
1.5233
1.49534
1.46956
1.44567
1.42345
1.40271
1.38329
1.36505
1.34789
1.33169
1.31636
1.30178
1.28756
1.27212
1.24773
1.17455
2.33412
2.25927
2.179
2.10114
2.02305
1.94628
1.87445
1.80985
1.75282
1.70254
1.65793
1.61801
1.58201
1.54931
1.51941
1.49195
1.46658
1.44306
1.42116
1.4007
1.38152
1.36351
1.34654
1.33051
1.31534
1.30088
1.28677
1.27141
1.24701
1.17221
2.2469
2.18561
2.12333
2.06035
1.99375
1.92509
1.85848
1.79717
1.74235
1.69372
1.65041
1.61157
1.57646
1.54451
1.51527
1.48836
1.46347
1.44037
1.41884
1.39871
1.37983
1.36207
1.34533
1.3295
1.31451
1.3002
1.28622
1.27093
1.24646
1.17006
2.17523
2.12499
2.07564
2.02387
1.96638
1.90461
1.84276
1.7846
1.73195
1.68493
1.64291
1.60512
1.5709
1.53971
1.51111
1.48476
1.46036
1.43768
1.41653
1.39673
1.37814
1.36064
1.34413
1.32851
1.3137
1.29954
1.28568
1.27047
1.24589
1.16797
2.11402
2.07356
2.03425
1.99127
1.94115
1.88521
1.82761
1.7724
1.72181
1.67633
1.63554
1.59877
1.56541
1.53496
1.50699
1.48118
1.45726
1.435
1.41421
1.39474
1.37644
1.3592
1.34292
1.32751
1.31286
1.29886
1.28512
1.26999
1.24529
1.16589
2.05977
2.02826
1.99731
1.96159
1.91763
1.86671
1.81293
1.76046
1.71185
1.66787
1.62827
1.5925
1.55997
1.53023
1.50288
1.47761
1.45416
1.43232
1.4119
1.39275
1.37474
1.35776
1.34171
1.32649
1.31202
1.29817
1.28455
1.2695
1.24468
1.16384
2.01077
1.98753
1.96383
1.93429
1.8956
1.84905
1.79871
1.7488
1.70208
1.65954
1.6211
1.58628
1.55458
1.52554
1.4988
1.47406
1.45107
1.42964
1.40958
1.39076
1.37303
1.35631
1.34048
1.32546
1.31117
1.29747
1.28398
1.26901
1.24404
1.16182
1.96602
1.95037
1.93311
1.90896
1.87485
1.83216
1.78493
1.73741
1.69249
1.65133
1.61401
1.58013
1.54923
1.52087
1.49473
1.47051
1.44798
1.42696
1.40726
1.38876
1.37132
1.35485
1.33925
1.32443
1.31032
1.29677
1.28341
1.26851
1.24339
1.15982
1.92482
1.91612
1.90464
1.88527
1.85521
1.81596
1.77156
1.72627
1.68306
1.64324
1.60701
1.57404
1.54391
1.51623
1.49067
1.46697
1.4449
1.42427
1.40493
1.38675
1.3696
1.35338
1.338
1.32339
1.30946
1.29607
1.28284
1.26802
1.24273
1.15783
1.88665
1.88429
1.87805
1.86297
1.83654
1.80039
1.75858
1.71537
1.67379
1.63526
1.60009
1.56801
1.53864
1.51162
1.48664
1.46344
1.44182
1.42159
1.4026
1.38473
1.36786
1.3519
1.33675
1.32234
1.30859
1.29537
1.28227
1.26753
1.24204
1.15587
1.85111
1.85454
1.85306
1.84188
1.81872
1.78538
1.74595
1.70469
1.66467
1.62739
1.59324
1.56203
1.5334
1.50702
1.48261
1.45991
1.43873
1.4189
1.40027
1.38271
1.36613
1.35042
1.3355
1.3213
1.30773
1.29466
1.28171
1.26704
1.24134
1.15392
1.81786
1.82657
1.82945
1.82182
1.80165
1.77088
1.73365
1.69422
1.65568
1.61961
1.58646
1.55609
1.52819
1.50245
1.47859
1.45639
1.43565
1.41621
1.39793
1.38069
1.36438
1.34893
1.33424
1.32024
1.30686
1.29397
1.28115
1.26655
1.24063
1.152
1.78664
1.80016
1.80705
1.80268
1.78524
1.75684
1.72166
1.68395
1.64683
1.61193
1.57974
1.5502
1.52301
1.4979
1.47459
1.45287
1.43257
1.41351
1.39558
1.37865
1.36264
1.34744
1.33298
1.31919
1.306
1.29327
1.2806
1.26606
1.2399
1.15009
1.75721
1.77514
1.78571
1.78434
1.76942
1.74321
1.70994
1.67387
1.63811
1.60432
1.57308
1.54434
1.51786
1.49336
1.47059
1.44936
1.42948
1.41081
1.39323
1.37662
1.36088
1.34594
1.33172
1.31814
1.30514
1.29259
1.28005
1.26557
1.23915
1.1482
1.72939
1.75134
1.76531
1.76672
1.75414
1.72996
1.69848
1.66395
1.62949
1.5968
1.56648
1.53853
1.51273
1.48883
1.4666
1.44585
1.4264
1.40812
1.39088
1.37458
1.35913
1.34444
1.33045
1.31709
1.30429
1.2919
1.27951
1.26508
1.23839
1.14632
1.70301
1.72864
1.74575
1.74974
1.73933
1.71706
1.68726
1.6542
1.62099
1.58935
1.55993
1.53275
1.50763
1.48432
1.46262
1.44234
1.42331
1.40541
1.38852
1.37254
1.35737
1.34295
1.3292
1.31605
1.30344
1.29123
1.27898
1.26459
1.23761
1.14447
1.67792
1.70694
1.72695
1.73334
1.72496
1.70446
1.67625
1.64459
1.61258
1.58197
1.55342
1.527
1.50254
1.47982
1.45865
1.43883
1.42023
1.40271
1.38616
1.37049
1.35561
1.34145
1.32794
1.31501
1.3026
1.29057
1.27846
1.26411
1.23682
1.14264
1.654
1.68613
1.70884
1.71746
1.71098
1.69216
1.66545
1.63512
1.60427
1.57466
1.54696
1.52128
1.49747
1.47534
1.45467
1.43532
1.41714
1.4
1.3838
1.36844
1.35385
1.33995
1.32668
1.31398
1.30177
1.28992
1.27794
1.26363
1.23601
1.14083
1.63114
1.66613
1.69135
1.70206
1.69736
1.68012
1.65484
1.62578
1.59605
1.5674
1.54054
1.51559
1.49242
1.47086
1.45071
1.43182
1.41405
1.39729
1.38144
1.3664
1.35209
1.33846
1.32543
1.31295
1.30094
1.28927
1.27744
1.26315
1.2352
1.13905
1.60924
1.64687
1.67442
1.68709
1.68406
1.66832
1.6444
1.61656
1.58791
1.5602
1.53415
1.50992
1.48739
1.46639
1.44675
1.42831
1.41096
1.39458
1.37907
1.36435
1.35034
1.33697
1.32419
1.31193
1.30013
1.28864
1.27695
1.26267
1.23437
1.13728
1.58823
1.62829
1.65801
1.67251
1.67107
1.65674
1.63411
1.60746
1.57985
1.55305
1.5278
1.50427
1.48237
1.46192
1.44278
1.42481
1.40787
1.39187
1.3767
1.3623
1.34858
1.33548
1.32295
1.31092
1.29933
1.28802
1.27646
1.26219
1.23353
1.13555
1.56803
1.61033
1.64207
1.6583
1.65835
1.64537
1.62398
1.59845
1.57186
1.54595
1.52149
1.49865
1.47736
1.45747
1.43883
1.4213
1.40478
1.38915
1.37434
1.36025
1.34683
1.334
1.32172
1.30992
1.29854
1.28742
1.27599
1.26172
1.23269
1.13384
1.54856
1.59294
1.62656
1.64442
1.64588
1.63418
1.61398
1.58955
1.56393
1.5389
1.5152
1.49304
1.47236
1.45301
1.43487
1.4178
1.40169
1.38644
1.37197
1.3582
1.34508
1.33252
1.32049
1.30893
1.29776
1.28683
1.27554
1.26125
1.23183
1.13215
1.52978
1.57607
1.61146
1.63084
1.63365
1.62317
1.60411
1.58073
1.55607
1.53188
1.50894
1.48745
1.46737
1.44856
1.43091
1.41429
1.39859
1.38372
1.3696
1.35616
1.34333
1.33105
1.31928
1.30795
1.297
1.28625
1.27509
1.26079
1.23098
1.1305
1.51162
1.55969
1.59672
1.61755
1.62163
1.61233
1.59436
1.572
1.54826
1.52491
1.5027
1.48187
1.46238
1.44412
1.42696
1.41078
1.39549
1.381
1.36723
1.35411
1.34158
1.32959
1.31807
1.30699
1.29625
1.2857
1.27466
1.26033
1.23012
1.12888
1.49404
1.54376
1.58233
1.60452
1.60981
1.60163
1.58472
1.56334
1.54051
1.51796
1.49649
1.47631
1.45741
1.43968
1.423
1.40727
1.39239
1.37828
1.36486
1.35207
1.33984
1.32813
1.31688
1.30603
1.29552
1.28516
1.27424
1.25988
1.22925
1.12729
1.477
1.52824
1.56825
1.59172
1.59818
1.59107
1.57518
1.55475
1.5328
1.51106
1.49029
1.47076
1.45244
1.43524
1.41904
1.40376
1.38929
1.37556
1.36249
1.35003
1.33811
1.32668
1.3157
1.3051
1.29481
1.28464
1.27385
1.25944
1.22839
1.12574
1.46046
1.51311
1.55447
1.57916
1.58671
1.58064
1.56573
1.54624
1.52514
1.50418
1.48412
1.46522
1.44747
1.43079
1.41508
1.40024
1.38619
1.37284
1.36013
1.34799
1.33638
1.32524
1.31453
1.30418
1.29412
1.28413
1.27347
1.25901
1.22753
1.12423
1.44437
1.49833
1.54096
1.5668
1.5754
1.57032
1.55637
1.53778
1.51752
1.49732
1.47796
1.45968
1.44251
1.42635
1.41112
1.39673
1.38308
1.37011
1.35776
1.34596
1.33466
1.32381
1.31337
1.30328
1.29345
1.28366
1.2731
1.25858
1.22667
1.12276
1.42871
1.48388
1.5277
1.55463
1.56424
1.56012
1.54709
1.52938
1.50994
1.49049
1.47181
1.45415
1.43755
1.42191
1.40716
1.39321
1.37997
1.36739
1.3554
1.34393
1.33295
1.3224
1.31223
1.30239
1.2928
1.2832
1.27276
1.25817
1.22582
1.12133
1.41346
1.46975
1.51467
1.54264
1.55321
1.55001
1.53788
1.52103
1.5024
1.48368
1.46567
1.44863
1.43258
1.41747
1.40319
1.38968
1.37686
1.36467
1.35303
1.34191
1.33125
1.32099
1.31111
1.30153
1.29217
1.28277
1.27244
1.25778
1.22498
1.11995
1.39857
1.4559
1.50186
1.53081
1.54231
1.54
1.52874
1.51272
1.49488
1.47689
1.45955
1.44311
1.42762
1.41302
1.39922
1.38616
1.37375
1.36194
1.35068
1.33989
1.32955
1.3196
1.31
1.30069
1.29157
1.28236
1.27215
1.2574
1.22415
1.11862
1.38403
1.44231
1.48926
1.51913
1.53152
1.53008
1.51966
1.50446
1.48739
1.47012
1.45343
1.4376
1.42266
1.40857
1.39525
1.38263
1.37064
1.35922
1.34832
1.33789
1.32787
1.31823
1.30892
1.29988
1.29099
1.28199
1.27188
1.25704
1.22334
1.11735
1.36981
1.42898
1.47684
1.5076
1.52084
1.52023
1.51064
1.49624
1.47992
1.46336
1.44732
1.43208
1.4177
1.40412
1.39127
1.3791
1.36753
1.3565
1.34597
1.33589
1.3262
1.31687
1.30785
1.29909
1.29045
1.28164
1.27164
1.2567
1.22255
1.11612
1.35588
1.41588
1.4646
1.4962
1.51026
1.51046
1.50166
1.48805
1.47248
1.45661
1.44121
1.42657
1.41273
1.39966
1.38729
1.37556
1.36441
1.35379
1.34363
1.3339
1.32455
1.31554
1.30682
1.29832
1.28994
1.28133
1.27142
1.25638
1.22178
1.11496
1.34224
1.403
1.45252
1.48492
1.49977
1.50075
1.49274
1.47989
1.46505
1.44987
1.4351
1.42105
1.40776
1.3952
1.38331
1.37203
1.3613
1.35107
1.34129
1.33192
1.32291
1.31422
1.3058
1.29759
1.28946
1.28105
1.27124
1.25609
1.22103
1.11387
1.32887
1.39031
1.4406
1.47375
1.48935
1.4911
1.48385
1.47176
1.45764
1.44313
1.429
1.41553
1.40279
1.39074
1.37933
1.3685
1.35819
1.34836
1.33897
1.32996
1.32129
1.31293
1.30482
1.2969
1.28902
1.28081
1.2711
1.25582
1.22032
1.11284
1.31573
1.37782
1.42881
1.46269
1.47902
1.4815
1.475
1.46365
1.45024
1.4364
1.4229
1.41001
1.39781
1.38627
1.37534
1.36496
1.35509
1.34567
1.33665
1.32801
1.31969
1.31166
1.30387
1.29624
1.28862
1.28061
1.271
1.2556
1.21964
1.11189
1.30282
1.3655
1.41715
1.45172
1.46875
1.47195
1.46619
1.45555
1.44285
1.42968
1.4168
1.40449
1.39284
1.38181
1.37136
1.36143
1.35199
1.34298
1.33436
1.32609
1.31812
1.31043
1.30295
1.29561
1.28826
1.28046
1.27093
1.2554
1.219
1.11101
1.29012
1.35334
1.40561
1.44083
1.45854
1.46245
1.45739
1.44748
1.43547
1.42295
1.41069
1.39897
1.38786
1.37734
1.36737
1.35791
1.3489
1.3403
1.33208
1.32418
1.31658
1.30922
1.30207
1.29504
1.28795
1.28035
1.27091
1.25525
1.21841
1.11022
1.27762
1.34132
1.39418
1.43002
1.44838
1.45297
1.44862
1.43941
1.42809
1.41623
1.40459
1.39345
1.38288
1.37288
1.3634
1.3544
1.34583
1.33765
1.32982
1.32231
1.31507
1.30806
1.30123
1.29451
1.28769
1.2803
1.27094
1.25514
1.21787
1.10952
1.2653
1.32945
1.38284
1.41928
1.43827
1.44353
1.43987
1.43136
1.42072
1.40951
1.39848
1.38792
1.37791
1.36842
1.35943
1.3509
1.34277
1.33502
1.32759
1.32046
1.31359
1.30694
1.30045
1.29402
1.28748
1.2803
1.27102
1.25508
1.21738
1.10892
1.25314
1.3177
1.3716
1.4086
1.4282
1.43411
1.43113
1.42331
1.41335
1.40279
1.39238
1.38241
1.37294
1.36398
1.35549
1.34742
1.33974
1.33241
1.3254
1.31866
1.31216
1.30586
1.29971
1.2936
1.28733
1.28036
1.27116
1.25508
1.21695
1.10842
1.24114
1.30606
1.36044
1.39797
1.41816
1.4247
1.4224
1.41526
1.40598
1.39607
1.38628
1.3769
1.36799
1.35956
1.35156
1.34397
1.33675
1.32985
1.32325
1.3169
1.31078
1.30484
1.29903
1.29324
1.28725
1.28048
1.27136
1.25513
1.21659
1.10802
1.22927
1.29453
1.34934
1.38739
1.40815
1.41531
1.41367
1.40722
1.39861
1.38936
1.3802
1.37141
1.36306
1.35516
1.34767
1.34057
1.3338
1.32734
1.32115
1.3152
1.30946
1.30389
1.29842
1.29295
1.28723
1.28067
1.27163
1.25524
1.21631
1.10775
1.21752
1.28308
1.3383
1.37684
1.39815
1.40593
1.40495
1.39918
1.39125
1.38267
1.37414
1.36595
1.35817
1.35081
1.34384
1.33721
1.33091
1.32488
1.31911
1.31357
1.30821
1.303
1.29788
1.29273
1.28729
1.28093
1.27196
1.25542
1.2161
1.10759
1.20588
1.27171
1.32731
1.36631
1.38816
1.39654
1.39622
1.39114
1.3839
1.37599
1.36811
1.36053
1.35333
1.34652
1.34007
1.33393
1.32809
1.32251
1.31716
1.31202
1.30704
1.3022
1.29742
1.29259
1.28743
1.28128
1.27237
1.25567
1.21597
1.10756
1.19432
1.26039
1.31636
1.3558
1.37817
1.38716
1.3875
1.38311
1.37658
1.36936
1.36213
1.35518
1.34857
1.34232
1.33639
1.33075
1.32537
1.32024
1.31531
1.31056
1.30597
1.30149
1.29705
1.29254
1.28765
1.2817
1.27285
1.25599
1.21594
1.10766
1.18282
1.24912
1.30542
1.34529
1.36817
1.37777
1.37879
1.37511
1.3693
1.36279
1.35624
1.34992
1.34392
1.33823
1.33283
1.32769
1.32278
1.31809
1.31357
1.30922
1.305
1.30088
1.29679
1.29259
1.28797
1.2822
1.2734
1.25639
1.21599
1.10791
1.17135
1.23786
1.29448
1.33477
1.35817
1.36838
1.37009
1.36716
1.3621
1.35632
1.35047
1.34481
1.33943
1.33431
1.32944
1.3248
1.32035
1.31609
1.31199
1.30802
1.30417
1.3004
1.29664
1.29274
1.28838
1.28279
1.27404
1.25686
1.21613
1.10829
1.15986
1.22658
1.28353
1.32423
1.34816
1.35901
1.36145
1.3593
1.35503
1.35001
1.34489
1.33991
1.33514
1.3306
1.32627
1.32211
1.31812
1.31428
1.31058
1.30699
1.3035
1.30006
1.29662
1.29301
1.2889
1.28348
1.27475
1.25741
1.21636
1.10881
1.14832
1.21527
1.27254
1.31368
1.33816
1.34969
1.35292
1.3516
1.34817
1.34395
1.33958
1.33528
1.33115
1.32718
1.32336
1.31969
1.31614
1.3127
1.30938
1.30615
1.30299
1.29988
1.29674
1.2934
1.28952
1.28424
1.27553
1.25801
1.21667
1.10945
1.13659
1.20386
1.26152
1.30313
1.32822
1.34051
1.3446
1.34419
1.34164
1.33827
1.33466
1.33106
1.32755
1.32413
1.32082
1.31759
1.31445
1.3114
1.30843
1.30553
1.30269
1.29988
1.29701
1.29392
1.29024
1.2851
1.27638
1.25867
1.21704
1.11022
1.12475
1.19235
1.25046
1.29264
1.31845
1.3316
1.33665
1.33722
1.33562
1.33311
1.33027
1.32735
1.32443
1.32154
1.31868
1.31587
1.3131
1.3104
1.30774
1.30515
1.30259
1.30004
1.29743
1.29457
1.29106
1.28601
1.27726
1.25934
1.21744
1.11107
1.11201
1.18058
1.23948
1.28246
1.30917
1.32333
1.32945
1.33107
1.33044
1.32878
1.32667
1.32437
1.32198
1.31954
1.31709
1.31463
1.31219
1.30977
1.3074
1.30506
1.30275
1.30043
1.29803
1.29536
1.292
1.28701
1.27819
1.26004
1.21785
1.11199
1.09978
1.16896
1.22879
1.27284
1.30069
1.31603
1.32329
1.32596
1.32623
1.32532
1.32383
1.32204
1.32008
1.31801
1.31587
1.3137
1.31152
1.30935
1.3072
1.30508
1.30298
1.30087
1.29865
1.29614
1.2929
1.28794
1.27902
1.26062
1.21816
1.11281
1.08285
1.15688
1.21961
1.2655
1.29473
1.31123
1.3195
1.32301
1.32396
1.32357
1.3225
1.32104
1.31935
1.31751
1.31558
1.31359
1.31159
1.30959
1.3076
1.30564
1.3037
1.30174
1.29966
1.29725
1.29406
1.28907
1.27999
1.26127
1.21852
1.11382
1.07304
1.14768
1.21213
1.25993
1.29061
1.30803
1.31685
1.32069
1.32187
1.32166
1.32074
1.31941
1.31785
1.31614
1.31435
1.3125
1.31065
1.3088
1.30697
1.30518
1.3034
1.3016
1.29968
1.2974
1.2943
1.28932
1.28015
1.2612
1.2182
1.11387
1.04022
1.14431
1.21915
1.26816
1.29726
1.31278
1.32015
1.32306
1.32368
1.32316
1.32207
1.32068
1.31911
1.31744
1.31572
1.31397
1.31222
1.31049
1.30878
1.30711
1.30544
1.30374
1.30189
1.29963
1.29646
1.29129
1.28174
1.26225
1.21882
1.11535
1.03069
1.13546
1.21244
1.26299
1.29317
1.30957
1.31761
1.32101
1.32199
1.32174
1.32087
1.31968
1.3183
1.31681
1.31526
1.31367
1.31208
1.31051
1.30895
1.30742
1.3059
1.30434
1.30261
1.30047
1.29741
1.29233
1.28282
1.26327
1.21961
1.11578
1.04946
1.12779
1.19493
1.2455
1.27894
1.29863
1.30913
1.31421
1.31635
1.31694
1.31671
1.31603
1.31507
1.31394
1.31269
1.31137
1.31002
1.30865
1.30728
1.30593
1.30458
1.30318
1.30162
1.29966
1.29679
1.29192
1.28263
1.26327
1.21948
1.11497
1.05024
1.12632
1.191
1.23995
1.27314
1.29342
1.30473
1.31054
1.31326
1.31432
1.3145
1.31417
1.31354
1.3127
1.31172
1.31066
1.30953
1.30838
1.30723
1.30607
1.3049
1.30368
1.30228
1.30048
1.29774
1.29297
1.28372
1.26425
1.22008
1.11519
1.05402
1.12587
1.18801
1.23546
1.26817
1.28865
1.30042
1.30671
1.30985
1.31129
1.3118
1.31179
1.31145
1.31088
1.31016
1.30933
1.30843
1.30749
1.30653
1.30556
1.30457
1.30351
1.30227
1.30061
1.29801
1.29335
1.28415
1.26461
1.22011
1.11474
1.05557
1.12538
1.18632
1.23295
1.26521
1.28561
1.29749
1.30397
1.30732
1.30895
1.30966
1.30986
1.30972
1.30936
1.30884
1.30821
1.30751
1.30675
1.30597
1.30517
1.30434
1.30343
1.30234
1.30081
1.29832
1.29374
1.28456
1.26492
1.22003
1.11428
1.05672
1.12484
1.185
1.23117
1.26317
1.28346
1.29536
1.3019
1.30533
1.30706
1.30789
1.30822
1.30823
1.30802
1.30766
1.30719
1.30664
1.30605
1.30542
1.30476
1.30407
1.3033
1.30234
1.30092
1.29853
1.294
1.28483
1.26505
1.21978
1.11365
1.0574
1.12417
1.1838
1.2298
1.26169
1.28195
1.29384
1.3004
1.30385
1.30562
1.30651
1.30691
1.30701
1.30691
1.30668
1.30633
1.30591
1.30544
1.30494
1.30441
1.30384
1.30319
1.30233
1.30101
1.29868
1.2942
1.285
1.26507
1.2194
1.11295
1.05781
1.12343
1.18264
1.22861
1.26054
1.28082
1.29274
1.2993
1.30275
1.30453
1.30543
1.30587
1.30603
1.30602
1.30587
1.30562
1.3053
1.30494
1.30454
1.30412
1.30365
1.30309
1.30232
1.30107
1.2988
1.29434
1.28509
1.265
1.21891
1.11219
1.05805
1.12264
1.18149
1.2275
1.25956
1.27994
1.29191
1.29849
1.30194
1.30371
1.30461
1.30507
1.30527
1.3053
1.30522
1.30504
1.30481
1.30453
1.30421
1.30387
1.30349
1.30301
1.3023
1.30112
1.29888
1.29442
1.28512
1.26485
1.21836
1.1114
1.05817
1.12183
1.18033
1.22644
1.25868
1.27921
1.29127
1.29789
1.30134
1.3031
1.304
1.30446
1.30468
1.30474
1.3047
1.30459
1.30441
1.3042
1.30395
1.30368
1.30336
1.30294
1.30229
1.30115
1.29894
1.29447
1.2851
1.26464
1.21774
1.11059
1.05822
1.12101
1.17918
1.22539
1.25785
1.27857
1.29076
1.29744
1.3009
1.30265
1.30354
1.304
1.30422
1.30431
1.30431
1.30423
1.3041
1.30394
1.30375
1.30353
1.30327
1.30289
1.30229
1.30117
1.29898
1.29449
1.28504
1.26438
1.21708
1.10978
1.05821
1.1202
1.17804
1.22436
1.25706
1.27799
1.29033
1.29708
1.30058
1.30233
1.3032
1.30365
1.30388
1.30399
1.304
1.30395
1.30386
1.30374
1.30359
1.30342
1.30319
1.30286
1.30228
1.30119
1.29899
1.29448
1.28495
1.26408
1.21639
1.10898
1.05817
1.1194
1.17692
1.22333
1.25628
1.27745
1.28995
1.2968
1.30034
1.30209
1.30296
1.3034
1.30363
1.30374
1.30377
1.30375
1.30368
1.30359
1.30348
1.30333
1.30314
1.30283
1.30228
1.30119
1.29899
1.29445
1.28482
1.26376
1.21567
1.10819
1.05811
1.11863
1.17582
1.22231
1.25551
1.27693
1.28961
1.29657
1.30015
1.30192
1.30279
1.30323
1.30345
1.30356
1.3036
1.30359
1.30355
1.30348
1.30339
1.30327
1.3031
1.30281
1.30227
1.30119
1.29898
1.2944
1.28468
1.26341
1.21494
1.10742
1.05804
1.11787
1.17474
1.22131
1.25475
1.27642
1.28929
1.29637
1.30001
1.30181
1.30267
1.3031
1.30332
1.30344
1.30348
1.30348
1.30345
1.3034
1.30332
1.30322
1.30307
1.3028
1.30227
1.30119
1.29896
1.29433
1.28452
1.26304
1.2142
1.10667
1.05796
1.11714
1.17369
1.22031
1.25399
1.27591
1.28898
1.29619
1.2999
1.30172
1.3026
1.30302
1.30324
1.30335
1.3034
1.3034
1.30338
1.30334
1.30328
1.30319
1.30305
1.30279
1.30226
1.30117
1.29893
1.29425
1.28434
1.26265
1.21346
1.10593
1.05788
1.11643
1.17266
1.21932
1.25324
1.27541
1.28868
1.29603
1.29982
1.30167
1.30255
1.30297
1.30319
1.30329
1.30334
1.30335
1.30333
1.3033
1.30325
1.30317
1.30304
1.30278
1.30225
1.30116
1.29889
1.29417
1.28416
1.26226
1.21271
1.10522
1.0578
1.11575
1.17166
1.21835
1.25248
1.27491
1.28839
1.29587
1.29974
1.30163
1.30253
1.30295
1.30316
1.30326
1.30331
1.30332
1.30331
1.30328
1.30323
1.30316
1.30303
1.30277
1.30224
1.30114
1.29885
1.29408
1.28396
1.26185
1.21196
1.10453
1.05771
1.11509
1.17069
1.21739
1.25173
1.2744
1.2881
1.29572
1.29968
1.30161
1.30252
1.30294
1.30315
1.30325
1.3033
1.3033
1.30329
1.30327
1.30322
1.30315
1.30302
1.30276
1.30223
1.30112
1.2988
1.29398
1.28376
1.26144
1.21121
1.10386
1.05763
1.11445
1.16975
1.21645
1.25098
1.2739
1.2878
1.29558
1.29962
1.30159
1.30252
1.30295
1.30316
1.30325
1.30329
1.3033
1.30329
1.30326
1.30322
1.30315
1.30302
1.30276
1.30222
1.30109
1.29875
1.29387
1.28355
1.26102
1.21046
1.10321
1.05756
1.11384
1.16883
1.21552
1.25024
1.2734
1.28751
1.29543
1.29956
1.30158
1.30253
1.30297
1.30317
1.30327
1.3033
1.30331
1.3033
1.30327
1.30322
1.30315
1.30302
1.30276
1.30221
1.30106
1.29869
1.29376
1.28333
1.2606
1.20972
1.10258
1.05748
1.11325
1.16793
1.21461
1.2495
1.2729
1.28721
1.29528
1.29951
1.30158
1.30255
1.30299
1.3032
1.30329
1.30332
1.30333
1.30331
1.30328
1.30323
1.30316
1.30302
1.30275
1.30219
1.30103
1.29864
1.29365
1.28311
1.26017
1.20898
1.10197
1.05742
1.11268
1.16706
1.21371
1.24876
1.27239
1.28691
1.29513
1.29945
1.30158
1.30257
1.30302
1.30323
1.30331
1.30335
1.30334
1.30332
1.30329
1.30324
1.30317
1.30303
1.30275
1.30218
1.301
1.29858
1.29353
1.28289
1.25974
1.20825
1.10138
1.05735
1.11212
1.16621
1.21282
1.24803
1.27188
1.28661
1.29498
1.2994
1.30158
1.3026
1.30306
1.30326
1.30335
1.30337
1.30337
1.30335
1.30331
1.30326
1.30318
1.30303
1.30275
1.30217
1.30097
1.29851
1.29342
1.28267
1.25931
1.20752
1.1008
1.05729
1.11159
1.16538
1.21196
1.24731
1.27138
1.2863
1.29483
1.29935
1.30158
1.30262
1.30309
1.3033
1.30338
1.3034
1.3034
1.30337
1.30333
1.30327
1.30319
1.30304
1.30274
1.30215
1.30094
1.29845
1.2933
1.28244
1.25887
1.2068
1.10025
1.05723
1.11107
1.16457
1.2111
1.24659
1.27087
1.28599
1.29467
1.29929
1.30158
1.30265
1.30313
1.30334
1.30342
1.30344
1.30343
1.3034
1.30335
1.30329
1.3032
1.30304
1.30274
1.30214
1.30091
1.29839
1.29318
1.28221
1.25844
1.20608
1.09971
1.05718
1.11057
1.16379
1.21026
1.24587
1.27036
1.28568
1.29451
1.29923
1.30158
1.30268
1.30317
1.30338
1.30346
1.30347
1.30346
1.30342
1.30337
1.30331
1.30321
1.30305
1.30274
1.30212
1.30088
1.29832
1.29306
1.28198
1.258
1.20537
1.09918
1.05713
1.11009
1.16302
1.20943
1.24517
1.26984
1.28536
1.29435
1.29917
1.30157
1.3027
1.30321
1.30342
1.3035
1.30351
1.30349
1.30345
1.3034
1.30333
1.30322
1.30305
1.30274
1.30211
1.30084
1.29826
1.29294
1.28175
1.25756
1.20466
1.09868
1.05709
1.10962
1.16227
1.20862
1.24446
1.26933
1.28504
1.29418
1.2991
1.30157
1.30273
1.30325
1.30346
1.30354
1.30355
1.30352
1.30348
1.30342
1.30335
1.30324
1.30306
1.30273
1.3021
1.30081
1.29819
1.29281
1.28151
1.25712
1.20397
1.09818
1.05704
1.10917
1.16154
1.20782
1.24377
1.26882
1.28472
1.29401
1.29903
1.30156
1.30275
1.30328
1.3035
1.30358
1.30358
1.30356
1.30351
1.30345
1.30337
1.30325
1.30307
1.30273
1.30208
1.30078
1.29813
1.29269
1.28128
1.25668
1.20328
1.09771
1.05701
1.10873
1.16082
1.20704
1.24308
1.26831
1.28439
1.29383
1.29896
1.30155
1.30278
1.30332
1.30354
1.30362
1.30362
1.30359
1.30354
1.30347
1.30338
1.30327
1.30307
1.30273
1.30207
1.30074
1.29806
1.29256
1.28104
1.25624
1.20259
1.09724
1.05697
1.1083
1.16013
1.20626
1.2424
1.2678
1.28406
1.29365
1.29889
1.30154
1.3028
1.30336
1.30358
1.30366
1.30366
1.30363
1.30357
1.3035
1.30341
1.30328
1.30308
1.30273
1.30205
1.30071
1.298
1.29244
1.2808
1.2558
1.20192
1.09679
1.05694
1.10788
1.15944
1.2055
1.24172
1.26729
1.28373
1.29347
1.29881
1.30153
1.30282
1.30339
1.30362
1.3037
1.3037
1.30366
1.3036
1.30352
1.30342
1.30329
1.30309
1.30273
1.30204
1.30067
1.29793
1.29231
1.28056
1.25536
1.20125
1.09635
1.05691
1.10748
1.15878
1.20476
1.24105
1.26678
1.2834
1.29329
1.29873
1.30152
1.30284
1.30343
1.30366
1.30374
1.30374
1.30369
1.30363
1.30355
1.30344
1.30331
1.3031
1.30272
1.30202
1.30064
1.29786
1.29218
1.28032
1.25492
1.20058
1.09592
1.05688
1.10709
1.15812
1.20402
1.24038
1.26627
1.28306
1.2931
1.29865
1.3015
1.30286
1.30346
1.3037
1.30378
1.30377
1.30373
1.30366
1.30357
1.30347
1.30332
1.3031
1.30272
1.30201
1.30061
1.29779
1.29205
1.28008
1.25448
1.19993
1.09551
1.05686
1.10671
1.15748
1.20329
1.23972
1.26576
1.28273
1.29291
1.29856
1.30148
1.30287
1.30349
1.30374
1.30382
1.30381
1.30376
1.30369
1.3036
1.30348
1.30334
1.30311
1.30272
1.30199
1.30057
1.29773
1.29193
1.27983
1.25404
1.19928
1.0951
1.05684
1.10633
1.15686
1.20258
1.23907
1.26525
1.28239
1.29271
1.29848
1.30146
1.30289
1.30353
1.30378
1.30386
1.30385
1.30379
1.30372
1.30362
1.3035
1.30335
1.30312
1.30272
1.30198
1.30054
1.29766
1.2918
1.27959
1.2536
1.19864
1.09471
1.05682
1.10597
1.15624
1.20188
1.23843
1.26475
1.28204
1.29252
1.29838
1.30143
1.3029
1.30356
1.30382
1.30389
1.30388
1.30383
1.30374
1.30365
1.30352
1.30336
1.30312
1.30272
1.30196
1.3005
1.29759
1.29167
1.27934
1.25316
1.198
1.09432
1.0568
1.10562
1.15564
1.20118
1.23778
1.26424
1.2817
1.29232
1.29829
1.30141
1.30291
1.30358
1.30385
1.30393
1.30392
1.30386
1.30377
1.30367
1.30354
1.30338
1.30313
1.30271
1.30195
1.30047
1.29752
1.29153
1.2791
1.25272
1.19737
1.09395
1.05678
1.10527
1.15505
1.2005
1.23715
1.26374
1.28136
1.29211
1.29819
1.30138
1.30292
1.30361
1.30389
1.30397
1.30395
1.30389
1.3038
1.30369
1.30356
1.30339
1.30314
1.30271
1.30193
1.30043
1.29745
1.2914
1.27885
1.25229
1.19675
1.09358
1.05677
1.10494
1.15448
1.19983
1.23652
1.26324
1.28101
1.29191
1.29809
1.30135
1.30293
1.30364
1.30392
1.304
1.30399
1.30392
1.30383
1.30372
1.30358
1.3034
1.30314
1.30271
1.30192
1.3004
1.29738
1.29127
1.2786
1.25185
1.19613
1.09323
1.05676
1.10461
1.15391
1.19916
1.2359
1.26274
1.28066
1.2917
1.29799
1.30131
1.30294
1.30367
1.30396
1.30404
1.30402
1.30395
1.30386
1.30374
1.3036
1.30342
1.30315
1.30271
1.3019
1.30036
1.29731
1.29114
1.27835
1.25141
1.19553
1.09288
1.05675
1.10429
1.15335
1.19851
1.23528
1.26224
1.28032
1.29149
1.29789
1.30128
1.30294
1.30369
1.30399
1.30407
1.30405
1.30398
1.30388
1.30376
1.30362
1.30343
1.30316
1.30271
1.30189
1.30033
1.29724
1.291
1.2781
1.25098
1.19492
1.09254
1.05674
1.10398
1.15281
1.19787
1.23467
1.26175
1.27997
1.29128
1.29778
1.30124
1.30294
1.30371
1.30402
1.30411
1.30409
1.30401
1.30391
1.30379
1.30364
1.30344
1.30316
1.3027
1.30187
1.30029
1.29717
1.29087
1.27785
1.25054
1.19433
1.09221
1.05674
1.10367
1.15227
1.19723
1.23407
1.26125
1.27962
1.29106
1.29767
1.3012
1.30294
1.30374
1.30405
1.30414
1.30412
1.30404
1.30394
1.30381
1.30365
1.30346
1.30317
1.3027
1.30186
1.30025
1.2971
1.29073
1.2776
1.25011
1.19374
1.09189
1.05673
1.10337
1.15175
1.1966
1.23347
1.26076
1.27927
1.29084
1.29756
1.30116
1.30294
1.30376
1.30408
1.30417
1.30415
1.30407
1.30396
1.30383
1.30367
1.30347
1.30317
1.3027
1.30184
1.30022
1.29703
1.2906
1.27735
1.24967
1.19316
1.09157
1.05673
1.10308
1.15123
1.19599
1.23288
1.26027
1.27892
1.29062
1.29744
1.30111
1.30294
1.30378
1.30411
1.3042
1.30418
1.3041
1.30399
1.30385
1.30369
1.30348
1.30318
1.30269
1.30183
1.30018
1.29696
1.29046
1.2771
1.24924
1.19258
1.09126
1.05673
1.1028
1.15072
1.19538
1.23229
1.25979
1.27856
1.2904
1.29732
1.30107
1.30294
1.3038
1.30414
1.30423
1.30421
1.30413
1.30401
1.30387
1.30371
1.30349
1.30319
1.30269
1.30181
1.30015
1.29688
1.29032
1.27684
1.24881
1.19201
1.09096
1.05673
1.10252
1.15022
1.19478
1.23171
1.2593
1.27821
1.29018
1.2972
1.30102
1.30293
1.30381
1.30417
1.30426
1.30424
1.30416
1.30404
1.3039
1.30372
1.30351
1.30319
1.30269
1.30179
1.30011
1.29681
1.29019
1.27659
1.24838
1.19145
1.09067
1.05673
1.10224
1.14973
1.19418
1.23113
1.25882
1.27786
1.28995
1.29708
1.30097
1.30293
1.30383
1.30419
1.30429
1.30427
1.30418
1.30406
1.30392
1.30374
1.30352
1.3032
1.30268
1.30178
1.30007
1.29674
1.29005
1.27633
1.24795
1.19089
1.09038
1.05673
1.10198
1.14925
1.1936
1.23056
1.25834
1.27751
1.28973
1.29696
1.30092
1.30292
1.30384
1.30422
1.30432
1.3043
1.30421
1.30409
1.30394
1.30376
1.30353
1.3032
1.30268
1.30176
1.30004
1.29666
1.28991
1.27608
1.24753
1.19034
1.09009
1.05674
1.10172
1.14878
1.19302
1.22999
1.25786
1.27715
1.2895
1.29683
1.30086
1.30291
1.30386
1.30424
1.30435
1.30433
1.30424
1.30411
1.30396
1.30377
1.30354
1.30321
1.30268
1.30175
1.3
1.29659
1.28977
1.27582
1.2471
1.18979
1.08982
1.05674
1.10146
1.14831
1.19245
1.22943
1.25739
1.2768
1.28927
1.2967
1.30081
1.3029
1.30387
1.30427
1.30438
1.30436
1.30427
1.30413
1.30398
1.30379
1.30355
1.30321
1.30267
1.30173
1.29996
1.29652
1.28963
1.27557
1.24668
1.18925
1.08955
1.05675
1.10121
1.14785
1.19189
1.22887
1.25691
1.27645
1.28904
1.29657
1.30075
1.30289
1.30388
1.30429
1.30441
1.30438
1.30429
1.30416
1.304
1.30381
1.30356
1.30322
1.30267
1.30171
1.29992
1.29644
1.28948
1.27531
1.24625
1.18872
1.08928
1.05676
1.10096
1.1474
1.19133
1.22832
1.25644
1.2761
1.2888
1.29644
1.30069
1.30287
1.30389
1.30431
1.30443
1.30441
1.30432
1.30418
1.30402
1.30382
1.30357
1.30322
1.30267
1.3017
1.29988
1.29637
1.28934
1.27505
1.24583
1.18819
1.08902
1.05677
1.10072
1.14695
1.19078
1.22778
1.25598
1.27574
1.28857
1.29631
1.30063
1.30286
1.3039
1.30433
1.30446
1.30444
1.30434
1.3042
1.30404
1.30384
1.30358
1.30323
1.30266
1.30168
1.29985
1.29629
1.2892
1.27479
1.24541
1.18767
1.08877
1.05677
1.10048
1.14652
1.19024
1.22723
1.25551
1.27539
1.28834
1.29617
1.30056
1.30284
1.30391
1.30436
1.30449
1.30446
1.30437
1.30423
1.30406
1.30385
1.3036
1.30323
1.30266
1.30166
1.29981
1.29622
1.28906
1.27453
1.24499
1.18715
1.08852
1.05678
1.10025
1.14609
1.1897
1.2267
1.25505
1.27504
1.2881
1.29603
1.3005
1.30282
1.30392
1.30438
1.30451
1.30449
1.30439
1.30425
1.30408
1.30387
1.30361
1.30324
1.30266
1.30165
1.29977
1.29614
1.28891
1.27428
1.24457
1.18664
1.08827
1.0568
1.10002
1.14566
1.18917
1.22617
1.25459
1.27469
1.28786
1.29589
1.30043
1.3028
1.30393
1.3044
1.30454
1.30452
1.30442
1.30427
1.30409
1.30388
1.30362
1.30324
1.30265
1.30163
1.29973
1.29606
1.28877
1.27402
1.24416
1.18613
1.08803
1.05681
1.0998
1.14524
1.18865
1.22564
1.25413
1.27433
1.28762
1.29575
1.30036
1.30278
1.30393
1.30442
1.30456
1.30454
1.30444
1.30429
1.30411
1.3039
1.30363
1.30325
1.30265
1.30161
1.29969
1.29598
1.28862
1.27376
1.24374
1.18563
1.08779
1.05682
1.09958
1.14483
1.18813
1.22512
1.25368
1.27398
1.28738
1.29561
1.30029
1.30276
1.30394
1.30443
1.30458
1.30457
1.30446
1.30431
1.30413
1.30391
1.30364
1.30325
1.30264
1.30159
1.29965
1.2959
1.28847
1.2735
1.24333
1.18513
1.08756
1.05683
1.09937
1.14443
1.18762
1.2246
1.25323
1.27363
1.28714
1.29546
1.30022
1.30273
1.30394
1.30445
1.30461
1.30459
1.30449
1.30434
1.30415
1.30393
1.30365
1.30326
1.30264
1.30158
1.29961
1.29583
1.28833
1.27324
1.24292
1.18464
1.08734
1.05685
1.09916
1.14403
1.18712
1.22409
1.25278
1.27328
1.2869
1.29532
1.30015
1.30271
1.30395
1.30447
1.30463
1.30461
1.30451
1.30436
1.30417
1.30394
1.30366
1.30326
1.30264
1.30156
1.29957
1.29575
1.28818
1.27297
1.24251
1.18416
1.08711
1.05686
1.09895
1.14363
1.18662
1.22358
1.25233
1.27293
1.28666
1.29517
1.30007
1.30268
1.30395
1.30448
1.30465
1.30464
1.30453
1.30438
1.30419
1.30396
1.30367
1.30326
1.30263
1.30154
1.29953
1.29567