/*--------------------------------*- C++ -*----------------------------------*\
  =========                 |
  \\      /  F ield         | OpenFOAM: The Open Source CFD Toolbox
   \\    /   O peration     | Website:  https://openfoam.org
    \\  /    A nd           | Version:  8
     \\/     M anipulation  |
\*---------------------------------------------------------------------------*/
FoamFile
{
    version     2.0;
    format      ascii;
    class       volScalarField;
    location    "1.1";
    object      N01;
}
// * * * * * * * * * * * * * * * * * * * * * * * * * * * * * * * * * * * * * //

dimensions      [0 0 0 0 0 0 0];

internalField   nonuniform List<scalar> 
6300
(
135.657
607.471
755.997
811.764
843.259
863.47
877.622
888.269
896.763
903.845
909.931
915.266
920.014
924.334
928.729
932.929
937.011
940.076
944.417
946.856
949.101
951.172
953.087
954.862
956.508
958.025
959.36
960.207
959.033
946.568
51.7006
375.563
568.244
653.35
705.476
740.408
765.565
784.896
800.573
813.802
825.271
835.393
844.456
852.782
861.25
869.352
877.167
883.215
891.464
896.193
900.553
904.582
908.314
911.778
914.995
917.964
920.574
922.219
919.918
896.522
28.7532
261.043
446.636
536.586
596.346
638.764
670.523
695.568
716.231
733.879
749.326
763.085
775.578
787.632
799.513
810.263
821.221
829.911
841.486
848.213
854.439
860.212
865.577
870.57
875.218
879.512
883.281
885.639
882.298
849.331
18.1276
190.221
359.61
446.912
508.23
553.813
589.184
617.803
641.836
662.624
681.007
697.545
712.779
727.856
742.504
755.497
769.111
780.133
794.545
803.029
810.906
818.232
825.058
831.428
837.371
842.868
847.687
850.661
846.283
804.962
12.5487
143.586
294.96
377.24
437.27
483.474
520.381
550.923
577.006
599.857
620.277
638.84
656.182
673.645
690.566
706.185
721.084
734.097
750.869
760.833
770.112
778.765
786.849
794.411
801.482
808.03
813.757
817.231
811.814
763.234
9.35898
111.579
245.247
321.841
379.277
424.677
461.799
493.121
520.288
544.384
566.143
586.136
605.07
624.397
643.16
660.845
676.955
693.12
710.217
721.415
731.873
741.654
750.813
759.401
767.448
774.906
781.412
785.276
778.827
723.989
7.35307
88.829
206.05
276.931
331.227
375.053
411.573
442.905
470.463
495.193
517.756
538.71
558.814
579.582
599.817
619.123
636.335
655.023
672.364
684.58
696.021
706.749
716.821
726.286
735.169
743.409
750.576
754.73
747.264
687.082
5.98139
72.1356
174.585
239.97
290.954
332.812
368.24
399.07
426.528
451.44
474.397
495.944
516.879
538.739
560.131
580.703
598.891
619.588
637.096
650.141
662.393
673.91
684.748
694.955
704.551
713.455
721.173
725.528
717.067
652.374
4.97981
59.5241
148.977
209.18
256.868
296.58
330.632
360.629
387.648
412.412
435.465
457.392
479.413
502.1
523.744
545.3
564.364
586.615
604.219
617.929
630.838
643.004
654.478
665.306
675.501
684.964
693.134
697.608
688.182
619.734
4.21151
49.7463
127.901
183.272
227.775
265.29
297.816
326.774
353.121
377.504
400.434
422.561
445.337
468.545
490.341
512.655
532.488
555.917
573.553
587.784
601.218
613.907
625.902
637.242
647.935
657.86
666.391
670.912
660.557
589.041
3.60017
41.9956
110.392
161.287
202.763
238.103
269.038
296.837
322.361
346.199
368.849
391.025
414.286
437.783
459.645
482.554
503.023
527.323
544.935
559.562
573.403
586.506
598.918
610.673
621.772
632.072
640.882
645.385
634.143
560.178
3.10027
35.7365
95.7279
142.493
181.121
214.353
243.686
270.265
294.873
318.057
340.315
362.415
385.96
409.663
432.291
454.792
475.757
500.675
518.212
533.126
547.272
560.693
573.43
585.514
596.936
607.531
616.547
620.976
608.89
533.037
2.68309
30.6043
83.3573
126.324
162.291
193.503
221.261
246.598
270.238
292.698
314.485
336.413
360.085
383.908
407.012
429.165
450.5
475.828
493.246
508.354
522.715
536.368
549.35
561.685
573.356
584.176
593.33
597.635
584.752
507.513
2.32962
26.3432
72.8548
112.337
145.824
175.119
201.347
225.451
248.103
269.809
291.14
313.305
336.422
360.282
383.682
405.662
428.58
452.649
469.91
485.13
499.628
513.439
526.593
539.111
550.964
561.945
571.177
575.314
561.684
483.511
2.02675
22.7689
63.8867
100.176
131.359
158.843
183.603
206.499
228.166
249.113
269.994
292.26
315.396
338.584
362.163
384.056
408.079
431.016
448.084
463.347
477.915
491.818
505.082
517.721
529.697
540.781
550.036
553.969
539.644
460.94
1.76511
19.7456
56.189
89.5556
118.6
144.382
167.742
189.469
210.169
230.368
250.802
273.05
296.049
318.635
342.312
364.15
388.904
410.814
427.662
442.908
457.487
471.425
484.742
497.449
509.496
520.631
529.862
533.557
518.588
439.712
1.53779
17.1707
49.5505
80.2429
107.306
131.49
153.521
174.125
193.89
213.361
233.35
255.498
278.347
301.141
323.991
345.775
370.964
391.94
408.544
423.721
438.261
452.184
465.507
478.233
490.304
501.444
510.606
514.037
498.477
419.748
1.33951
14.9652
43.8009
72.047
97.2728
119.962
140.737
160.271
179.136
197.904
217.453
239.441
262.117
284.939
307.073
328.784
354.179
374.299
390.637
405.703
420.161
434.026
447.312
460.015
472.068
483.172
492.227
495.371
479.273
400.972
1.16615
13.0672
38.8018
64.81
88.3332
109.625
129.215
147.734
165.75
183.917
203.55
224.734
247.209
269.949
291.439
313.047
338.469
357.801
373.857
388.775
403.113
416.884
430.096
442.74
454.738
465.77
474.683
477.522
460.936
383.311
1.01439
11.4273
34.4398
58.4001
80.3451
100.33
118.808
136.369
153.594
171.232
190.869
211.899
233.498
256.096
277.148
299.84
323.764
342.366
358.126
372.866
387.053
400.697
413.803
426.356
438.267
449.193
457.934
460.453
443.432
366.698
0.881511
10.0059
30.6214
52.7069
73.1884
91.9542
109.387
126.05
142.54
159.704
179.272
200.042
220.876
243.303
264.039
287.421
309.995
327.918
343.372
357.908
371.918
385.409
398.381
410.814
422.609
433.401
441.945
444.131
426.725
351.071
0.765191
8.77052
27.2692
47.6372
66.7611
84.3887
100.843
116.665
132.475
149.206
168.659
189.197
210.099
231.489
251.979
275.745
297.1
314.388
329.528
343.839
357.651
370.965
383.78
396.069
407.723
418.355
426.678
428.525
410.783
336.369
0.663456
7.69431
24.3182
43.112
60.9758
77.5416
93.0825
108.128
123.384
140.274
158.938
179.25
200.064
220.578
240.854
264.77
285.02
301.713
316.533
330.602
344.197
357.316
369.953
382.078
393.569
404.019
412.101
413.602
395.572
322.536
0.574583
6.75499
21.7141
39.0638
55.7577
71.3332
86.0229
100.36
115.153
132.134
150.686
170.103
190.727
210.497
230.567
254.455
273.7
289.833
304.329
318.144
331.506
344.414
356.858
368.799
380.109
390.358
398.181
399.334
381.061
309.52
0.497054
5.93384
19.4111
35.4351
51.0421
65.6947
79.5935
93.2858
107.684
124.693
143.037
161.682
182.078
201.337
222.338
244.762
263.091
278.695
292.865
306.414
319.533
332.217
344.452
356.195
367.307
377.338
384.889
385.693
367.221
297.272
0.429526
5.21503
17.3701
32.1762
46.7732
60.5658
73.7314
86.8387
100.893
117.888
136.056
154.769
174.083
192.974
214.55
235.654
253.144
268.247
282.091
295.367
308.234
320.682
332.697
344.23
355.13
364.929
372.195
372.651
354.023
285.743
0.370801
4.5851
15.5581
29.2444
42.9025
55.8952
68.3911
81.043
95.4049
111.659
129.663
148.296
166.7
185.308
207.186
227.096
243.817
258.444
271.963
284.96
297.567
309.773
321.558
332.87
343.546
353.1
360.071
360.182
341.439
274.892
0.319811
4.03254
13.9466
26.6025
39.3877
51.6381
63.5281
75.8198
90.4152
106.637
123.788
142.248
159.884
178.254
200.228
219.055
235.068
249.242
262.438
275.153
287.496
299.452
311
322.082
332.525
341.824
348.492
348.263
329.442
264.676
0.275605
3.54747
12.5112
24.2185
36.1922
47.7549
59.0995
71.1001
85.8615
101.957
118.38
136.622
153.743
172.982
193.657
211.501
226.86
240.602
253.478
265.91
277.984
289.687
300.992
311.836
322.038
331.073
337.432
336.869
318.007
255.057
0.237335
3.12137
11.2309
22.0643
33.2845
44.2198
55.1522
67.5888
81.706
97.7077
114.247
131.406
148.178
167.962
187.455
204.405
219.157
232.487
245.047
257.195
268.999
280.445
291.503
302.105
312.059
320.823
326.868
325.978
307.109
245.999
0.204249
2.74686
10.0875
20.1157
30.6374
41.0056
51.6245
64.4209
78.6235
93.8287
110.339
126.581
143.108
163.188
181.606
197.738
211.928
224.863
237.112
248.976
260.511
271.698
282.506
292.861
302.561
311.048
316.778
315.568
296.724
237.467
0.175679
2.41757
9.0653
18.3512
28.2265
38.0855
48.4629
61.5487
75.736
90.2728
106.657
122.123
138.467
158.655
176.091
191.476
205.141
217.699
229.642
241.224
252.489
263.417
273.973
284.078
293.521
301.727
307.139
305.619
286.83
229.429
0.151036
2.12793
8.15056
16.7528
26.0386
35.522
46.4858
58.9463
73.1419
87.8641
103.216
118.152
135.384
154.355
170.895
185.593
198.77
210.966
222.608
233.911
244.908
255.577
265.88
275.734
284.916
292.838
297.931
296.111
277.405
221.855
0.129803
1.87312
7.3314
15.3049
24.058
33.265
44.726
57.3425
70.7942
85.5555
100.019
114.587
132.409
150.282
166.002
180.069
192.787
204.636
215.984
227.011
237.742
248.153
258.204
267.804
276.723
284.359
289.134
287.025
268.428
214.717
0.111524
1.64893
6.59789
14.0006
22.3592
32.2752
43.1495
55.8233
68.6567
83.3566
97.0613
111.379
129.549
146.426
161.395
174.881
187.169
198.684
209.744
220.5
230.967
241.122
250.921
260.269
268.924
276.272
280.731
278.343
259.878
207.988
0.0958121
1.45201
5.94738
12.9246
22.113
31.4276
42.5538
54.4929
67.5834
81.2903
94.4715
109.617
126.807
142.782
157.061
170.009
181.894
193.088
203.866
214.354
224.562
234.464
244.012
253.107
261.498
268.558
272.703
270.047
251.736
201.643
0.0824593
1.28391
5.47348
13.6349
21.8697
30.6959
41.9687
53.315
66.516
79.3672
92.1837
107.898
124.187
139.341
152.986
165.437
176.94
187.825
198.329
208.554
218.506
228.157
237.457
246.299
254.426
261.199
265.033
262.121
243.984
195.658
0.153212
4.14011
7.43949
14.2288
21.7192
30.9813
41.5021
53.1714
65.471
77.5895
90.1459
106.23
121.691
136.096
149.157
161.145
172.288
182.876
193.112
203.08
212.78
222.183
231.237
239.829
247.692
254.178
257.705
254.549
236.604
190.012
2.69512
6.37111
9.15126
16.1058
22.6998
31.2078
41.1261
52.9749
64.4765
76.0854
89.4286
104.62
119.317
133.04
145.561
157.118
167.921
178.222
188.196
197.912
207.365
216.525
225.335
233.678
241.279
247.479
250.704
247.315
229.579
184.684
4.0899
8.22203
12.3356
17.7457
23.5647
31.4865
41.7813
52.7443
63.5486
74.7989
88.68
103.072
117.068
130.164
142.186
153.342
163.821
173.847
183.566
193.035
202.245
211.164
219.734
227.83
235.171
241.088
244.016
240.405
222.891
179.653
6.27773
11.715
15.0156
19.1972
24.4282
32.8353
42.3289
52.5091
62.8186
74.7732
87.9147
101.592
114.941
127.463
139.023
149.802
159.974
169.733
179.204
188.432
197.404
206.087
214.418
222.271
229.352
234.989
237.625
233.805
216.526
174.902
7.62241
14.4846
17.3001
20.5823
26.4518
34.0291
42.7924
52.288
62.2426
74.6878
87.1452
100.183
112.935
124.929
136.06
146.487
156.366
165.867
175.097
184.088
192.827
201.277
209.374
216.985
223.81
229.168
231.518
227.501
210.468
170.414
8.6182
18.538
21.0448
23.3062
28.2574
35.094
43.2035
52.2079
62.8564
74.5556
86.3818
98.8479
111.05
122.556
133.287
143.383
152.983
162.235
171.229
179.989
188.499
196.721
204.587
211.959
218.53
223.613
225.683
221.48
204.703
166.172
10.6527
21.7966
24.2562
25.716
29.8793
36.0531
43.5841
52.2323
63.3705
74.3881
85.6341
97.5901
109.283
120.339
130.697
140.48
149.813
158.824
167.588
176.122
184.408
192.405
200.044
207.18
213.499
218.311
220.108
215.73
199.216
162.161
12.0308
24.4749
27.0373
27.8639
31.3473
36.9361
44.0561
53.4001
63.8023
74.1981
84.9311
96.4117
107.634
118.272
128.281
137.768
146.845
155.623
164.162
172.475
180.541
188.317
195.732
202.635
208.706
213.25
214.779
210.238
193.995
158.367
13.1119
26.7301
29.4716
29.7942
32.6955
37.8628
45.6648
54.4358
64.1671
73.9966
84.2776
95.3149
106.1
116.35
126.031
135.238
144.069
152.619
160.94
169.036
176.886
184.446
191.64
198.312
204.137
208.418
209.687
204.993
189.025
154.776
14.1033
30.1837
33.1153
32.9098
35.2108
39.9236
47.1285
55.3596
64.4782
73.793
83.6784
94.3017
104.681
114.569
123.941
132.88
141.475
149.804
157.91
165.795
173.432
180.78
187.755
194.201
199.783
203.803
204.819
199.983
184.296
151.377
16.4497
33.0992
36.3104
35.7121
37.5108
41.8047
48.4658
56.1888
64.7472
73.5957
83.1381
93.3744
103.374
112.924
122.005
130.689
139.053
147.168
155.064
162.74
170.17
177.307
184.068
190.289
195.631
199.396
200.165
195.198
179.795
148.156
18.1548
35.6277
39.143
38.2501
39.6239
43.5304
49.6931
56.9385
64.9845
73.4121
82.6617
92.5351
102.181
111.412
120.216
128.655
136.797
144.701
152.391
159.863
167.088
174.018
180.567
186.566
191.671
195.185
195.716
190.627
175.51
145.103
19.5992
37.8815
41.6827
40.5644
41.5742
45.1209
50.8247
57.6215
65.1991
73.2494
82.2543
91.7865
101.099
110.03
118.569
126.772
134.698
142.395
149.883
157.153
164.176
170.903
177.243
183.023
187.894
191.161
191.46
186.26
171.431
142.207
20.9639
39.9438
43.9855
42.6882
43.3819
46.5932
51.8727
58.2494
65.4018
73.1364
81.9213
91.1315
100.13
108.775
117.061
125.035
132.749
140.243
147.531
154.602
161.426
167.951
174.085
179.648
184.288
187.313
187.387
182.087
167.546
139.459
22.3433
41.8788
46.0957
44.6483
45.0633
47.9614
52.8474
58.8326
65.6055
73.1032
81.6688
90.5733
99.2728
107.646
115.686
123.437
130.942
138.236
145.326
152.201
158.828
165.154
171.083
176.431
180.843
183.63
183.489
178.097
163.846
136.849
23.7909
43.733
48.0457
46.4632
46.6299
49.2355
53.7571
59.3802
65.8218
73.157
81.5039
90.1159
98.5294
106.639
114.441
121.973
129.273
136.367
143.262
149.941
156.372
162.501
168.227
173.363
177.55
180.104
179.754
174.281
160.319
134.369
25.367
45.55
49.8608
48.1462
48.0894
50.4232
54.6091
59.9024
66.0642
73.3051
81.4329
89.7627
97.8998
105.753
113.322
120.638
127.733
134.629
141.328
147.813
154.05
159.983
165.507
170.433
174.397
176.723
176.172
170.628
156.957
132.009
27.0997
47.3417
51.5399
49.692
49.4378
51.5242
55.4064
60.4138
66.4047
73.5601
81.4667
89.5207
97.3876
104.99
112.327
119.427
126.318
133.016
139.519
145.81
151.853
157.59
162.914
167.63
171.375
173.477
172.733
167.128
153.748
129.761
29.1742
49.1745
53.0963
51.1012
50.6762
52.5454
56.1637
60.9436
66.8741
73.9258
81.6069
89.3886
96.9886
104.341
111.448
118.332
125.017
131.515
137.822
143.919
149.768
155.309
160.432
164.94
168.467
170.351
169.423
163.768
150.68
127.618
31.5041
50.9226
54.42
52.2991
51.7582
53.4615
56.8799
61.5617
67.5063
74.433
81.8796
89.3868
96.7186
103.82
110.693
117.359
123.835
130.13
136.237
142.137
147.79
153.134
158.056
162.355
165.666
167.334
166.231
160.536
147.743
125.569
35.0877
52.8761
55.5704
53.3144
52.7245
54.3364
57.6468
62.3312
68.2606
75.0414
82.2438
89.4735
96.5352
103.384
110.022
116.466
122.73
128.82
134.728
140.429
145.886
151.033
155.755
159.846
162.943
164.402
163.132
157.411
144.919
123.606
38.6263
54.1227
56.0527
53.8881
53.4435
55.1487
58.6062
63.3824
69.2594
75.863
82.801
89.74
96.5207
103.106
109.498
115.711
121.755
127.632
133.331
138.828
144.083
149.027
153.542
157.423
160.303
161.554
160.125
154.387
142.199
121.718
46.7535
55.6413
56.2027
54.3353
54.2491
56.169
59.7125
64.5001
70.2771
76.6742
83.3343
89.9782
96.4769
102.8
108.949
114.933
120.759
126.427
131.922
137.219
142.276
147.023
151.34
155.017
157.692
158.75
157.181
151.451
139.583
119.915
42.8317
53.9527
55.9678
54.6054
54.333
55.9192
59.1588
63.6955
69.2509
75.4627
81.9756
88.506
94.9132
101.158
107.236
113.156
118.922
124.533
129.975
135.224
140.237
144.945
149.229
152.884
155.552
156.625
155.105
149.478
137.805
118.481
39.1794
52.8414
56.0609
55.0939
54.6774
55.9505
58.8583
63.0854
68.3559
74.3214
80.6399
87.0281
93.3268
99.4819
105.483
111.334
117.038
122.593
127.983
133.184
138.155
142.827
147.083
150.72
153.386
154.481
153.02
147.51
136.049
117.085
35.8182
51.0808
55.6148
55.2177
54.8368
55.9204
58.5697
62.5292
67.5436
73.3003
79.4506
85.6994
91.8813
97.9363
103.85
109.622
115.255
120.744
126.074
131.222
136.144
140.774
144.996
148.61
151.27
152.383
150.977
145.582
134.333
115.726
33.4652
49.5318
55.1059
55.254
54.9707
55.9282
58.3651
62.0864
66.8569
72.3791
78.3326
84.4339
90.4914
96.4388
102.258
107.946
113.503
118.923
124.191
129.282
134.154
138.741
142.929
146.521
149.175
150.308
148.959
143.682
132.649
114.402
31.7206
48.0743
54.4746
55.1476
55.0136
55.9023
58.1713
61.6863
66.2357
71.5384
77.3039
83.2537
89.1805
95.014
100.733
106.331
111.808
117.155
122.357
127.389
132.208
136.75
140.902
144.47
147.118
148.269
146.978
141.82
131.003
113.116
30.392
46.7937
53.8133
54.9587
54.9938
55.8508
57.9856
61.3204
65.6691
70.7672
76.3424
82.1389
87.9316
93.6475
99.2621
104.768
110.161
115.433
120.567
125.537
130.302
134.798
138.914
142.458
145.098
146.268
145.036
139.996
129.396
111.866
29.3254
45.6708
53.1453
54.7065
54.9175
55.7685
57.7959
60.9733
65.1395
70.0471
75.4407
81.0838
86.7409
92.337
97.8452
103.256
108.563
113.757
118.822
123.729
128.44
132.888
136.967
140.486
143.12
144.309
143.134
138.214
127.831
110.653
28.4301
44.6915
52.4938
54.4142
54.7975
55.6593
57.5999
60.6386
64.6384
69.3687
74.5894
80.0808
85.6022
91.0776
96.4782
101.793
107.013
112.129
117.122
121.966
126.621
131.022
135.063
138.558
141.185
142.392
141.276
136.479
126.307
109.475
27.6508
43.8332
51.8688
54.096
54.6432
55.5266
57.3963
60.3122
64.1597
68.7244
73.7826
79.1248
84.5115
89.8664
95.159
100.376
105.509
110.545
115.467
120.247
124.846
129.2
133.203
136.673
139.292
140.517
139.466
134.788
124.823
108.33
26.9542
43.0754
51.2754
53.7629
54.4629
55.3742
57.1854
59.9916
63.6992
68.1093
73.0151
78.2114
83.4652
88.7004
93.8854
99.0056
104.05
109.007
113.857
118.573
123.116
127.422
131.387
134.832
137.443
138.692
137.702
133.14
123.378
107.218
26.3191
42.3998
50.7151
53.4226
54.2628
55.2057
56.968
59.6757
63.2543
67.5221
72.2828
77.337
82.4604
87.5773
92.6554
97.6789
102.636
107.513
112.292
116.944
121.43
125.687
129.615
133.034
135.641
136.914
135.982
131.533
121.97
106.138
25.7316
41.7913
50.1873
53.0801
54.0481
55.0241
56.7452
59.3642
62.8266
66.9614
71.5825
76.4987
81.4943
86.4948
91.4672
96.3947
101.265
106.063
110.77
115.357
119.787
123.996
127.885
131.282
133.887
135.18
134.304
129.964
120.597
105.088
25.1819
41.2376
49.6902
52.7393
53.8228
54.8322
56.5229
59.0633
62.4163
66.4244
70.9112
75.6939
80.5649
85.451
90.3193
95.1524
99.9357
104.655
109.29
113.814
118.187
122.348
126.201
129.577
132.177
133.489
132.666
128.434
119.26
104.067
24.6633
40.7291
49.2218
52.4024
53.5901
54.6397
56.3035
58.7711
62.021
65.9086
70.2666
74.9205
79.6705
84.4447
89.2104
93.9497
98.6471
103.288
107.852
112.312
116.628
120.743
124.562
127.916
130.511
131.84
131.068
126.94
117.956
103.075
24.1705
40.2579
48.7795
52.0712
53.358
54.4463
56.0861
58.4862
61.6393
65.4128
69.6473
74.1766
78.8086
83.4735
88.1385
92.7852
97.3978
101.961
106.455
110.85
115.112
119.183
122.967
126.299
128.886
130.231
129.508
125.481
116.685
102.11
23.6995
39.818
48.361
51.7466
53.1271
54.2515
55.87
58.2079
61.2702
64.9348
69.051
73.46
77.9775
82.5356
87.1019
91.6576
96.1864
100.673
105.096
109.43
113.64
117.666
121.415
124.722
127.302
128.66
127.985
124.058
115.445
101.171
23.2472
39.4045
47.9641
51.4296
52.8972
54.0553
55.6551
57.9355
60.912
64.473
68.476
72.7691
77.1756
81.6297
86.0994
90.5657
95.012
99.4226
103.777
108.052
112.209
116.19
119.903
123.186
125.756
127.127
126.497
122.668
114.237
100.259
22.8111
39.0135
47.5866
51.1228
52.6682
53.8578
55.4414
57.668
60.5636
64.0262
67.9208
72.1023
76.4014
80.7543
85.1295
89.508
93.8731
98.2087
102.498
106.713
110.817
114.754
118.431
121.688
124.248
125.63
125.044
121.311
113.059
99.3702
22.3891
38.6421
47.2267
50.8254
52.4402
53.6592
55.2283
57.4047
60.2241
63.5932
67.3841
71.4583
75.6534
79.9079
84.191
88.4835
92.7687
97.0317
101.256
105.412
109.464
113.356
116.996
120.228
122.777
124.169
123.625
119.986
111.91
98.5059
21.9795
38.2876
46.8826
50.5366
52.2134
53.4598
55.0157
57.1454
59.8929
63.1731
66.8649
70.8358
74.9305
79.0894
83.2826
87.4909
91.6975
95.89
100.05
104.148
108.148
111.994
115.598
118.804
121.34
122.741
122.238
118.692
110.79
97.6647
21.5809
37.9482
46.5528
50.2555
51.9877
53.2598
54.8036
56.8896
59.5692
62.7651
66.3621
70.2338
74.2314
78.2976
82.403
86.5289
90.6585
94.7822
98.8785
102.919
106.867
110.669
114.235
117.414
119.938
121.347
120.884
117.428
109.697
96.846
21.192
37.6222
46.2361
49.9817
51.7635
53.0593
54.5921
56.6372
59.2528
62.3683
65.8747
69.651
73.5549
77.5311
81.5511
85.5964
89.651
93.7071
97.7407
101.724
105.62
109.377
112.907
116.059
118.569
119.985
119.561
116.193
108.632
96.0489
20.812
37.3082
45.9312
49.7147
51.5407
52.8586
54.3812
56.388
58.943
61.9822
65.4019
69.0867
72.9001
76.789
80.7258
84.6924
88.6738
92.6634
96.6352
100.562
104.407
108.119
111.612
114.736
117.233
118.655
118.268
114.988
107.592
95.2728
20.44
37.005
45.6371
49.4539
51.3197
52.6579
54.171
56.1418
58.6395
61.6061
64.943
68.5398
72.2658
76.0701
79.926
83.8158
87.7256
91.6498
95.5608
99.4311
103.226
106.894
110.349
113.445
115.928
117.356
117.005
113.81
106.578
94.517
20.0752
36.7116
45.3529
49.1992
51.1006
52.4574
53.9616
55.8985
58.3421
61.2395
64.4973
68.0095
71.6513
75.3736
79.1508
82.9655
86.8054
90.6654
94.5164
98.3313
102.076
105.699
109.117
112.186
114.653
116.086
115.77
112.66
105.589
93.7808
19.7171
36.4273
45.0778
48.9501
50.8834
52.2573
53.7531
55.6582
58.0504
60.882
64.064
67.4951
71.0555
74.6985
78.3991
82.1405
85.9121
89.709
93.5009
97.2611
100.956
104.535
107.916
110.956
113.409
114.845
114.563
111.536
104.624
93.0637
19.3651
36.1513
44.8111
48.7064
50.6683
52.0579
53.5457
55.4207
57.7642
60.5331
63.6426
66.9957
70.4778
74.0438
77.67
81.34
85.0448
88.7797
92.5133
96.2195
99.8651
103.4
106.744
109.756
112.193
113.633
113.384
110.438
103.683
92.365
19.0188
35.8829
44.5521
48.4678
50.4554
51.8593
53.3395
55.186
57.4832
60.1924
63.2326
66.5108
69.9172
73.4088
76.9626
80.5629
84.2023
87.8765
91.5528
95.2056
98.8024
102.294
105.6
108.584
111.005
112.448
112.232
109.366
102.764
91.6841
18.6778
35.6216
44.3004
48.2342
50.2448
51.6618
53.1346
54.954
57.2073
59.8595
62.8334
66.0397
69.3731
72.7925
76.2761
79.8085
83.384
86.9984
90.6183
94.2184
97.7669
101.215
104.485
107.44
109.845
111.29
111.105
108.318
101.868
91.0205
18.3418
35.3669
44.0554
48.0054
50.0366
51.4653
52.931
54.7248
56.9363
59.5342
62.4445
65.5817
68.8448
72.1944
75.6096
79.0759
82.5888
86.1446
89.709
93.2572
96.7579
100.163
103.396
106.323
108.712
110.158
110.004
107.294
100.993
90.3735
18.0105
35.1183
43.8168
47.7811
49.8309
51.2702
52.729
54.4983
56.6701
59.216
62.0656
65.1363
68.3315
71.6136
74.9625
78.3642
81.8159
85.3143
88.8241
92.3212
95.7746
99.1375
102.334
105.233
107.604
109.052
108.927
106.294
100.14
89.7427
17.6836
34.8755
43.5841
47.5612
49.6277
51.0765
52.5285
54.2746
56.4084
58.9048
61.6961
64.703
67.8328
71.0494
74.3339
77.6728
81.0646
84.5067
87.9628
91.4094
94.8161
98.1369
101.297
104.167
106.522
107.97
107.875
105.316
99.3064
89.1275
17.361
34.638
43.3569
47.3455
49.427
50.8843
52.3297
54.0535
56.1512
58.6002
61.3357
64.2813
67.3479
70.5012
73.7231
77.0009
80.3341
83.7209
87.1243
90.5212
93.8818
97.1608
100.285
103.127
105.464
106.913
106.846
104.361
98.4931
88.5275
17.0424
34.4056
43.1351
47.134
49.2289
50.6938
52.1326
53.8352
55.8983
58.302
60.984
63.8706
66.8764
69.9684
73.1296
76.3477
79.6236
82.9563
86.3079
89.6558
92.9708
96.2086
99.2967
102.11
104.431
105.88
105.84
103.427
97.6992
87.9421
16.7276
34.1779
42.9182
46.9264
49.0334
50.505
51.9373
53.6195
55.6496
58.01
60.6407
63.4706
66.4176
69.4503
72.5525
75.7126
78.9325
82.2121
85.5128
88.8125
92.0826
95.2794
98.332
101.117
103.42
104.869
104.856
102.515
96.9241
87.3709
16.4166
33.9547
42.7061
46.7227
48.8406
50.318
51.7439
53.4065
55.4049
57.7239
60.3053
63.0807
65.9711
68.9464
71.9914
75.095
78.2601
81.4877
84.7384
87.9906
91.2164
94.3727
97.39
100.147
102.433
103.881
103.894
101.623
96.1673
86.8134
16.1092
33.7357
42.4985
46.5227
48.6503
50.1328
51.5524
53.1961
55.1643
57.4435
59.9777
62.7007
65.5364
68.4562
71.4455
74.4941
77.6057
80.7824
83.984
87.1895
90.3715
93.4879
96.4702
99.1996
101.468
102.915
102.954
100.752
95.4283
86.2691
15.8052
33.5207
42.2952
46.3264
48.4627
49.9496
51.3629
52.9884
54.9276
57.1686
59.6575
62.33
65.113
67.979
70.9144
73.9095
76.9687
80.0955
83.249
86.4085
89.5473
92.6242
95.5718
98.2734
100.524
101.97
102.034
99.8998
94.7067
85.7378
15.5046
33.3094
42.096
46.1335
48.2778
49.7684
51.1754
52.7833
54.6946
56.8991
59.3445
61.9684
64.7005
67.5145
70.3975
73.3405
76.3485
79.4265
82.5327
85.647
88.7433
91.7812
94.6944
97.3684
99.6015
101.045
101.134
99.0669
94.0019
85.2189
15.2072
33.1017
41.9007
45.9441
48.0954
49.5891
50.9898
52.5808
54.4653
56.6347
59.0383
61.6155
64.2984
67.0621
69.8943
72.7865
75.7446
78.7748
81.8345
84.9044
87.9588
90.9581
93.8373
96.4838
98.6994
100.142
100.254
98.2528
93.3135
84.712
14.913
32.8974
41.7092
45.758
47.9156
49.4119
50.8064
52.3809
54.2396
56.3753
58.7387
61.2709
63.9064
66.6213
69.4042
72.2471
75.1563
78.1397
81.154
84.1802
87.1933
90.1545
93
95.6192
97.8173
99.2575
99.3933
97.4569
92.641
84.2168
14.6219
32.6962
41.5213
45.5751
47.7384
49.2367
50.6249
52.1836
54.0175
56.1207
58.4455
60.9344
63.5241
66.1919
68.9268
71.7217
74.5833
77.5208
80.4904
83.4737
86.4461
89.3698
92.182
94.7741
96.9547
98.3927
98.5514
96.6786
91.9841
83.7329
14.3339
32.4981
41.3368
45.3954
47.5637
49.0636
50.4456
51.9888
53.7988
55.8708
58.1584
60.6055
63.1511
65.7732
68.4617
71.2099
74.0248
76.9175
79.8434
82.7844
85.7169
88.6034
91.3827
93.948
96.111
97.5467
97.7278
95.9177
91.3422
83.26
14.0488
32.3029
41.1557
45.2186
47.3915
48.8926
50.2684
51.7965
53.5834
55.6255
57.8772
60.2842
62.787
65.3649
68.0084
70.7111
73.4805
76.3294
79.2123
82.1119
85.0049
87.8549
90.6016
93.1402
95.2859
96.719
96.9221
95.1737
90.715
82.7976
13.7666
32.1105
40.9778
45.0449
47.2218
48.7237
50.0932
51.6068
53.3713
55.3845
57.6018
59.97
62.4316
64.9667
67.5664
70.2249
72.9499
75.7559
78.5967
81.4556
84.3098
87.1237
89.8382
92.3505
94.4788
95.9092
96.1338
94.4461
90.102
82.3455
13.4873
31.9206
40.8029
44.874
47.0546
48.5568
49.9202
51.4195
53.1625
55.1477
57.3318
59.6627
62.0845
64.5782
67.1354
69.7508
72.4325
75.1965
77.9961
80.815
83.631
86.4093
89.0921
91.5782
93.6893
95.1168
95.3625
93.7345
89.5029
81.9033
13.2107
31.7332
40.631
44.706
46.8898
48.392
49.7492
51.2346
52.9567
54.9151
57.0672
59.362
61.7454
64.199
66.715
69.2886
71.9278
74.6508
77.41
80.1896
82.9681
85.7114
88.3627
90.823
92.9168
94.3415
94.6078
93.0386
88.9172
81.4707
12.937
31.5482
40.462
44.5406
46.7273
48.2293
49.5803
51.0521
52.7541
54.6865
56.8077
59.0678
61.414
63.8288
66.3048
68.8376
71.4355
74.1184
76.838
79.5791
82.3207
85.0294
87.6497
90.0843
92.1611
93.5827
93.8693
92.3579
88.3447
81.0475
12.6659
31.3655
40.2957
44.3779
46.5672
48.0687
49.4135
50.8721
52.5544
54.4618
56.5532
58.7797
61.0901
63.4672
65.9044
68.3976
70.9552
73.5988
76.2796
78.9829
81.6881
84.3628
86.9525
89.3618
91.4217
92.8401
93.1466
91.692
87.7849
80.6333
12.3975
31.1849
40.1321
44.218
46.4094
47.91
49.2488
50.6944
52.3577
54.2408
56.3036
58.4977
60.7733
63.114
65.5135
67.9682
70.4864
73.0917
75.7345
78.4006
81.0702
83.7114
86.2709
88.655
90.6981
92.1133
92.4393
91.0407
87.2375
80.2279
12.1317
31.0064
39.9711
44.0609
46.2539
47.7535
49.0861
50.519
52.1638
54.0235
56.0585
58.2214
60.4635
62.7689
65.1318
67.549
70.0289
72.5965
75.2021
77.8318
80.4663
83.0745
85.6042
87.9636
89.9899
91.4019
91.747
90.4034
86.7022
79.8309
11.8685
30.8299
39.8125
43.9063
46.1005
47.5989
48.9255
50.3459
51.9728
53.8098
55.818
57.9506
60.1603
62.4315
64.7589
67.1397
69.5822
72.1131
74.6822
77.2762
79.8762
82.4519
84.9522
87.2871
89.2969
90.7055
91.0694
89.7799
86.1786
79.4421
11.6079
30.6552
39.6563
43.7542
45.9494
47.4463
48.7668
50.1751
51.7845
53.5995
55.5818
57.6853
59.8635
62.1017
64.3946
66.74
69.146
71.6409
74.1744
76.7333
79.2994
81.8431
84.3144
86.6251
88.6185
90.0238
90.4061
89.1698
85.6663
79.0613
11.3498
30.4824
39.5024
43.6046
45.8004
47.2957
48.6102
50.0065
51.5989
53.3926
55.3498
57.4251
59.573
61.7791
64.0385
66.3494
68.72
71.1796
73.6782
76.2027
78.7356
81.2478
83.6905
85.9773
87.9544
89.3563
89.7568
88.5728
85.1652
78.6883
11.0941
30.3112
39.3508
43.4573
45.6535
47.1471
48.4555
49.8401
51.416
53.189
55.1219
57.1699
59.2885
61.4635
63.6905
65.9678
68.3038
70.729
73.1933
75.6841
78.1843
80.6655
83.0801
85.3433
87.3043
88.7028
89.1211
87.9885
84.6748
78.3227
10.841
30.1418
39.2013
43.3123
45.5086
47.0005
48.3028
49.6759
51.2356
52.9885
54.898
56.9196
59.0097
61.1546
63.3501
65.5948
67.8971
70.2886
72.7194
75.1772
77.6452
80.096
82.4828
84.7227
86.6679
88.0628
88.4986
87.4167
84.1949
77.9643
10.5903
29.9739
39.0539
43.1695
45.3658
46.8557
48.152
49.5139
51.0578
52.7912
54.6779
56.674
58.7366
60.8523
63.0171
65.2301
67.4996
69.8581
72.2562
74.6815
77.118
79.5389
81.8984
84.1152
86.0446
87.4362
87.8892
86.857
83.7251
77.613
10.342
29.8076
38.9086
43.0288
45.2249
46.7128
48.0031
49.3539
50.8825
52.5969
54.4616
56.4329
58.4689
60.5562
62.6914
64.8735
67.111
69.4372
71.8033
74.1969
76.6024
78.9938
81.3263
83.5205
85.4343
86.8224
87.2923
86.3091
83.2653
77.2685
10.0962
29.6427
38.7652
42.8902
45.086
46.5718
47.856
49.1961
50.7096
52.4055
54.2489
56.1963
58.2064
60.2663
62.3726
64.5247
66.731
69.0257
71.3604
73.7228
76.098
78.4604
80.7664
82.9382
84.8367
86.2213
86.7078
85.7726
82.8151
76.9306
9.85268
29.4792
38.6237
42.7536
44.949
46.4327
47.7109
49.0403
50.539
52.2171
54.0396
55.9638
57.949
59.9823
62.0605
64.1834
66.3593
68.6232
70.9272
73.2591
75.6044
77.9384
80.2183
82.368
84.2513
85.6325
86.1354
85.2475
82.3742
76.5991
9.61155
29.317
38.484
42.6189
44.8139
46.2953
47.5675
48.8864
50.3708
52.0314
53.8338
55.7355
57.6964
59.7039
61.755
63.8494
65.9957
68.2295
70.5034
72.8055
75.1215
77.4274
79.6817
81.8096
83.6779
85.0557
85.5747
84.7332
81.9425
76.2739
9.37277
29.1562
38.3461
42.4861
44.6806
46.1597
47.426
48.7346
50.2049
51.8484
53.6313
55.5112
57.4486
59.4311
61.4557
63.5225
65.64
67.8443
70.0888
72.3616
74.6489
76.9273
79.1563
81.2628
83.1163
84.4906
85.0255
84.2296
81.5196
75.9546
9.13632
28.9966
38.21
42.3552
44.5491
46.0259
47.2862
48.5848
50.0413
51.6681
53.432
55.2908
57.2054
59.1636
61.1625
63.2024
65.2918
67.4673
69.6831
71.9271
74.1862
76.4376
78.6417
80.7271
82.566
83.937
84.4874
83.7364
81.1053
75.6413
8.90219
28.8382
38.0755
42.226
44.4193
45.8937
47.1482
48.4368
49.8798
51.4905
53.2358
55.0741
56.9666
58.9012
60.8752
62.8889
64.951
67.0983
69.286
71.5019
73.7333
75.9582