/*--------------------------------*- C++ -*----------------------------------*\
  =========                 |
  \\      /  F ield         | OpenFOAM: The Open Source CFD Toolbox
   \\    /   O peration     | Website:  https://openfoam.org
    \\  /    A nd           | Version:  8
     \\/     M anipulation  |
\*---------------------------------------------------------------------------*/
FoamFile
{
    version     2.0;
    format      ascii;
    class       volScalarField;
    location    "1.1";
    object      N02;
}
// * * * * * * * * * * * * * * * * * * * * * * * * * * * * * * * * * * * * * //

dimensions      [0 0 0 0 0 0 0];

internalField   nonuniform List<scalar> 
6300
(
186.691
835.84
952.534
967.189
974.269
978.46
981.235
983.239
984.785
986.039
987.091
987.995
988.794
989.573
990.812
992.147
993.576
993.936
993.481
993.845
994.176
994.477
994.753
995.006
995.239
995.452
995.64
995.771
995.685
994.399
95.7494
676.644
896.914
928.505
943.945
953.204
959.377
963.854
967.32
970.133
972.491
974.517
976.315
978.101
980.737
983.52
986.341
987.076
986.354
987.141
987.855
988.505
989.099
989.643
990.142
990.598
990.999
991.275
991.076
988.324
62.7842
565.825
847.512
891.326
913.395
927.182
936.605
943.538
948.947
953.353
957.058
960.264
963.208
966.653
970.776
974.33
978.457
979.565
978.723
979.966
981.094
982.121
983.06
983.92
984.709
985.429
986.06
986.488
986.156
981.778
46.5605
482.753
801.736
855.694
883.095
900.817
913.246
922.545
929.872
935.879
940.958
945.398
949.599
954.705
960.263
964.678
970.03
971.514
970.675
972.404
973.974
975.404
976.71
977.907
979.005
980.006
980.88
981.462
980.964
974.825
37.8065
421.123
759.488
822.239
853.936
874.978
890.053
901.512
910.637
918.176
924.597
930.28
935.792
942.531
949.561
955.709
961.236
963.09
962.346
964.572
966.593
968.435
970.119
971.661
973.076
974.365
975.485
976.217
975.517
967.502
32.9479
375.348
720.369
790.813
826.031
849.869
867.246
880.64
891.421
900.402
908.118
915.036
921.881
930.218
938.715
946.385
952.045
953.521
953.787
956.513
958.991
961.25
963.316
965.21
966.947
968.528
969.896
970.77
969.832
959.848
30.1382
340.93
684.117
761.215
799.37
825.577
844.949
860.063
872.351
882.677
891.629
899.765
907.944
917.836
927.764
936.767
942.539
943.836
945.042
948.269
951.203
953.881
956.331
958.578
960.639
962.514
964.13
965.135
963.923
951.899
28.4522
314.513
650.554
733.277
773.911
802.138
823.238
839.873
853.524
865.094
875.222
884.547
894.048
905.442
916.742
926.911
932.791
934.068
936.151
939.873
943.262
946.356
949.189
951.789
954.175
956.343
958.202
959.327
957.806
943.687
27.4186
293.714
619.511
706.854
749.598
779.555
802.154
820.131
835.01
847.728
858.982
869.55
880.932
893.777
905.68
916.867
922.875
924.247
927.149
931.358
935.194
938.7
941.913
944.864
947.572
950.03
952.128
953.359
951.495
935.245
26.784
276.885
590.806
681.821
726.369
757.815
781.715
800.874
816.857
830.637
842.975
854.804
867.936
882.081
894.604
906.685
912.845
914.401
918.066
922.752
927.028
930.939
934.526
937.822
940.849
943.593
945.922
947.245
945.003
926.601
26.4026
262.896
564.244
658.067
704.164
736.893
761.924
782.125
799.101
813.864
827.247
840.332
855.08
870.397
883.541
896.415
902.746
904.553
908.931
914.082
918.786
923.094
927.048
930.683
934.022
937.046
939.598
940.995
938.345
917.784
26.1845
250.973
539.627
635.492
682.921
716.758
742.773
763.893
781.763
797.44
811.833
826.149
842.402
858.885
873.446
886.102
892.618
894.725
899.769
905.369
910.49
915.184
919.496
923.463
927.107
930.404
933.168
934.623
931.533
908.818
26.0706
240.579
516.762
614.009
662.583
697.377
724.249
746.181
764.86
781.389
796.756
812.268
829.925
847.538
863.277
875.781
882.494
884.936
890.601
896.636
902.159
907.227
911.887
916.177
920.119
923.679
926.645
928.139
924.58
899.728
26.0196
231.332
495.467
593.538
643.095
678.718
706.335
728.986
748.4
765.741
782.125
799.324
817.667
836.351
853.071
865.391
871.639
875.202
881.448
887.9
893.812
899.241
904.238
908.841
913.07
916.883
920.039
921.553
917.499
890.535
26.0012
222.958
475.573
574.007
624.407
660.745
689.013
712.301
732.39
750.512
767.934
786.706
806.342
825.323
842.862
854.988
860.964
865.538
872.326
879.178
885.463
891.241
896.562
901.467
905.973
910.03
913.361
914.876
910.3
881.26
25.9924
215.258
456.93
555.351
606.471
643.425
672.261
696.119
716.832
735.713
754.172
774.398
795.148
814.451
832.674
844.616
850.469
855.958
863.252
870.486
877.128
883.24
888.873
894.068
898.84
903.128
906.621
908.117
902.996
871.922
25.9752
208.082
439.403
537.511
589.243
626.728
656.06
680.429
701.725
721.348
740.831
762.406
784.228
804.653
822.532
834.311
840.158
846.474
854.239
861.836
868.819
875.25
881.182
886.655
891.682
896.19
899.83
901.286
895.598
862.54
25.9355
201.318
422.873
520.432
572.68
610.623
640.389
665.22
687.066
707.413
727.897
750.729
773.561
794.889
812.459
824.101
830.029
837.094
845.299
853.242
860.549
867.285
873.502
879.24
884.509
889.223
892.995
894.39
888.115
853.129
25.8622
194.881
407.238
504.066
556.746
595.08
625.228
650.481
672.861
694
716.028
739.361
763.129
785.191
802.475
814.01
820.085
827.829
836.442
844.713
852.328
859.353
865.841
871.832
877.331
882.238
886.125
887.439
880.558
843.705
25.7467
188.707
392.407
488.367
541.404
580.073
610.557
636.202
659.114
681.086
704.55
729.009
752.916
775.565
792.511
803.349
810.325
818.685
827.68
836.259
844.166
851.465
858.21
864.441
870.156
875.243
879.228
880.44
872.937
834.282
25.5826
182.747
378.304
473.294
526.621
565.576
596.359
622.374
645.818
668.645
693.432
718.844
742.912
766.023
782.612
792.958
800.75
809.67
819.018
827.889
836.071
843.629
850.617
857.074
862.993
868.244
872.312
873.401
865.262
824.873
25.3656
176.964
364.86
458.808
512.368
551.565
582.617
608.985
632.967
656.653
682.667
708.997
734.01
756.575
772.814
782.83
791.361
800.789
810.466
819.61
828.051
835.853
843.071
849.74
855.849
861.251
865.384
866.329
857.541
815.491
25.0929
171.33
352.017
444.876
498.615
538.018
569.315
596.039
620.648
645.804
672.243
699.432
725.167
747.234
763.142
772.957
782.158
792.047
802.029
811.43
820.113
828.145
835.578
842.446
848.731
854.27
858.45
859.231
849.783
806.147
24.7634
165.824
339.725
431.464
485.336
524.914
556.44
583.532
608.833
635.363
662.874
690.121
716.397
738.012
753.62
763.332
773.14
783.448
793.712
803.354
812.264
820.51
828.145
835.199
841.647
847.307
851.516
852.114
841.997
796.851
24.3774
160.432
327.941
418.544
472.508
512.235
543.981
571.457
597.492
625.298
653.711
681.043
707.719
728.839
743.6
753.949
764.306
774.996
785.521
795.387
804.51
812.956
820.778
828.004
834.602
840.368
844.589
844.983
834.191
787.613
23.9362
155.143
316.626
406.088
460.107
499.963
531.925
559.804
586.597
615.592
644.877
673.079
699.14
719.754
733.871
744.802
755.658
766.693
777.46
787.534
796.854
805.487
813.483
820.869
827.602
833.459
837.675
837.846
826.373
778.442
23.4425
149.951
305.747
394.07
448.113
488.083
520.272
548.663
576.9
606.232
636.332
665.186
690.668
710.785
724.424
735.886
747.193
758.543
769.532
779.799
789.303
798.108
806.266
813.797
820.652
826.585
830.778
830.707
818.549
769.345
22.8996
144.85
295.275
382.468
436.508
476.581
509.019
538.003
567.599
597.949
628.044
657.371
682.31
701.958
715.247
727.196
738.91
750.546
761.74
772.186
781.859
790.824
799.13
806.794
813.758
819.752
823.903
823.573
810.728
760.332
22.3116
139.838
285.184
371.261
425.273
465.447
498.16
527.794
558.66
589.869
619.985
649.633
673.997
692.66
706.334
718.726
730.81
742.705
754.087
764.698
774.527
783.639
792.08
799.865
806.924
812.963
817.056
816.448
802.917
751.408
21.6834
134.915
275.45
360.427
414.394
454.68
487.788
518.859
550.065
582.108
613.038
641.973
665.765
683.643
697.676
710.473
722.891
735.021
746.575
757.338
767.31
776.556
785.121
793.013
800.154
806.223
810.24
809.338
795.121
742.579
21.0199
130.08
266.055
349.95
403.858
444.278
477.875
510.317
542.582
574.625
606.151
634.397
657.642
674.899
689.266
702.431
715.152
727.494
739.205
750.107
760.211
769.578
778.255
786.243
793.452
799.537
803.46
802.248
787.348
733.853
20.3265
125.336
256.98
339.814
393.654
434.233
468.393
502.132
535.304
567.386
599.33
626.912
649.65
666.42
681.096
694.598
707.591
720.126
731.98
743.009
753.231
762.71
771.486
779.558
786.822
792.907
796.721
795.182
779.604
725.234
19.6089
120.683
248.21
330.003
383.782
424.647
460.282
494.288
528.343
561.277
592.57
619.451
641.205
658.197
673.161
686.968
700.208
712.917
724.901
736.045
746.375
755.952
764.816
772.96
780.267
786.338
790.024
788.146
771.895
716.727
18.8726
116.125
239.729
320.506
374.239
415.491
452.543
487.599
521.66
555.236
585.871
612.052
633.025
650.224
665.454
679.539
693.002
705.866
717.968
729.216
739.643
749.308
758.25
766.454
773.791
779.833
783.375
781.142
764.226
708.337
18.123
111.662
231.526
311.321
365.131
407.872
445.143
481.112
515.219
549.261
579.239
604.764
625.104
642.493
657.97
672.308
685.97
698.975
711.183
722.524
733.037
742.781
751.789
760.042
767.395
773.394
776.777
774.176
756.603
700.068
17.3655
107.299
223.6
302.564
357.82
400.618
438.968
474.933
509.932
543.345
572.612
597.022
617.432
634.999
650.703
665.271
679.113
692.243
704.546
715.97
726.559
736.37
745.435
753.726
761.084
767.025
770.232
767.252
749.032
691.923
16.6057
103.047
216.079
296.069
350.776
393.698
432.997
469.024
504.713
537.484
566.024
589.526
610.004
627.736
643.65
658.426
672.428
685.671
698.057
709.555
720.21
730.08
739.19
747.508
754.859
760.728
763.745
760.373
741.516
683.907
16.0209
102.836
211.716
289.81
344.091
388.116
427.337
464.328
499.561
531.68
559.5
582.271
602.813
620.698
636.806
651.77
665.915
679.257
691.718
703.28
713.992
723.91
733.057
741.391
748.722
754.505
757.317
753.543
734.062
676.021
19.6992
102.612
207.625
285.373
338.935
382.735
421.954
459.725
494.465
525.869
552.497
575.25
595.854
613.882
630.168
645.301
659.574
673.003
685.528
697.145
707.906
717.864
727.037
735.377
742.677
748.36
750.951
746.766
726.675
668.27
22.6534
102.486
205.798
281.126
333.987
377.657
417.852
455.209
489.42
520.079
545.696
568.458
589.122
607.283
623.731
639.016
653.402
666.908
679.489
691.152
701.952
711.941
721.132
729.467
736.723
742.293
744.65
740.046
719.357
660.656
27.3359
104.954
204.055
277.071
329.347
373.979
413.856
450.765
484.362
513.78
539.093
561.893
582.613
600.897
617.495
632.916
647.401
660.972
673.6
685.301
696.132
706.142
715.342
723.662
730.864
736.307
738.416
733.385
712.114
653.181
31.2779
107.296
202.401
273.309
326.278
370.435
409.96
446.387
479.315
507.64
532.686
555.552
576.325
594.724
611.456
626.998
641.569
655.195
667.862
679.593
690.447
700.47
709.669
717.964
725.1
730.404
732.252
726.787
704.95
645.847
34.7724
111.826
202.915
271.397
323.353
367.018
406.15
442.011
473.752
501.658
526.474
549.432
570.256
588.759
605.613
621.262
635.906
649.578
662.274
674.028
684.896
694.925
704.113
712.375
719.433
724.585
726.159
720.254
697.869
638.656
39.9805
116.175
203.471
269.612
320.566
363.719
402.42
437.654
468.327
495.834
520.458
543.533
564.404
583.002
599.965
615.707
630.413
644.121
656.839
668.606
679.482
689.507
698.677
706.894
713.863
718.85
720.139
713.79
690.875
631.61
44.6051
120.355
204.07
267.951
317.91
360.529
398.709
432.79
463.04
490.176
514.683
537.856
558.769
577.453
594.512
610.333
625.09
638.825
651.556
663.329
674.203
684.217
693.36
701.523
708.392
713.202
714.194
707.397
683.97
624.71
48.8104
124.388
204.715
266.412
315.379
357.388
394.484
428.063
457.891
484.69
509.148
532.401
553.353
572.113
589.255
605.142
619.938
633.69
646.426
658.197
669.062
679.056
688.163
696.262
703.02
707.642
708.326
701.077
677.158
617.958
52.7148
127.476
204.624
264.283
312.315
353.739
390.395
423.473
452.885
479.384
503.858
527.174
548.157
566.983
584.195
600.135
614.958
628.718
641.45
653.211
664.058
674.024
683.086
691.112
697.748
702.168
702.534
694.833
670.443
611.355
55.5961
130.581
204.672
262.335
309.423
350.25
386.441
419.02
448.028
474.266
498.815
522.18
543.187
562.066
579.335
595.314
610.152
623.909
636.629
648.37
659.191
669.121
678.129
686.072
692.575
696.783
696.821
688.667
663.827
604.902
58.6903
133.705
204.857
260.568
306.702
346.919
382.625
414.708
443.325
469.346
494.03
517.426
538.447
557.367
574.678
590.681
605.522
619.265
631.963
643.676
654.462
664.346
673.291
681.141
687.501
691.485
691.187
682.581
657.312
598.599
61.9439
136.859
205.181
258.982
304.155
343.749
378.953
410.544
438.79
464.639
489.512
512.922
533.947
552.893
570.228
586.24
601.07
614.789
627.453
639.128
649.87
659.7
668.573
676.319
682.524
686.274
685.632
676.575
650.901
592.448
65.3572
140.064
205.652
257.583
301.789
340.747
375.435
406.541
434.443
460.211
485.28
508.684
529.696
548.65
565.992
581.996
596.8
610.481
623.101
634.728
645.416
655.182
663.973
671.605
677.645
681.15
680.156
670.651
644.596
586.448
68.9651
143.348
206.284
256.386
299.62
337.928
372.086
402.717
430.317
456.14
481.354
504.728
525.708
544.649
561.978
577.954
592.716
606.344
618.908
630.476
641.099
650.79
659.488
666.997
672.86
676.109
674.758
664.809
638.398
580.6
72.817
146.745
207.098
255.41
297.668
335.313
368.931
399.102
426.455
452.458
477.762
501.077
522
540.904
558.194
574.121
588.822
602.382
614.875
626.371
636.918
646.524
655.118
662.492
668.167
671.151
669.435
659.049
632.308
574.903
77.0291
150.318
208.136
254.697
295.976
332.942
366.011
395.743
422.913
449.206
474.541
497.758
518.593
537.429
554.653
570.505
585.124
598.598
611.004
622.413
632.871
642.38
650.859
658.085
663.562
666.27
664.186
653.368
626.325
569.357
81.6828
154.12
209.439
254.294
294.592
330.865
363.379
392.717
419.903
446.446
471.739
494.811
515.516
534.246
551.369
567.118
581.629
594.996
607.297
618.604
628.958
638.356
646.708
653.774
659.039
661.462
659.004
647.765
620.448
563.961
87.2312
158.346
211.142
254.331
293.642
329.202
361.162
390.172
417.563
444.239
469.403
492.269
512.794
531.372
548.355
563.967
578.342
591.577
603.754
614.94
625.175
634.447
642.656
649.55
654.591
656.717
653.883
642.232
614.674
558.71
93.658
163.012
213.299
254.899
293.223
328.049
359.48
388.377
416.048
442.705
467.629
490.207
510.484
528.853
545.646
561.078
575.282
588.357
600.384
611.428
621.524
630.652
638.703
645.407
650.209
652.028
648.814
636.761
608.994
553.599
103.248
168.97
216.475
256.506
293.806
327.86
358.798
387.67
415.411
441.874
466.427
488.62
508.574
526.669
543.219
558.427
572.424
585.308
597.16
608.04
617.978
626.945
634.821
641.321
645.871
647.372
643.775
631.336
603.397
548.623
114.646
175.851
220.667
259.243
295.499
328.842
359.608
388.441
415.965
441.993
465.997
487.673
507.197
524.931
541.166
556.09
569.831
582.483
594.123
604.809
614.561
623.343
631.021
637.295
641.573
642.742
638.757
625.942
597.863
543.75
137.244
186.815
228.061
264.99
299.929
332.249
362.258
390.529
417.462
442.793
466.073
487.115
506.121
523.426
539.292
553.891
567.344
579.739
591.149
601.625
611.179
619.764
627.233
633.273
637.274
638.11
633.75
620.589
592.425
539.026
132.621
180.649
221.039
257.423
292.121
324.582
354.906
383.535
410.805
436.479
460.118
481.509
500.827
518.401
534.498
549.3
562.931
575.485
587.038
597.641
607.31
615.999
623.562
629.686
633.76
634.655
630.326
617.149
588.88
535.25
126.797
176.679
216.26
251.775
285.936
318.231
348.562
377.254
404.612
430.426
454.276
475.927
495.506
513.317
529.627
544.62
558.423
571.133
582.826
593.558
603.344
612.14
619.803
626.017
630.173
631.135
626.851
613.676
585.33
531.506
119.725
172.428
211.848
246.711
280.377
312.442
342.697
371.381
398.776
424.726
448.777
470.647
490.439
508.446
524.933
540.087
554.038
566.883
578.7
589.546
599.437
608.331
616.083
622.38
626.61
627.636
623.393
610.219
581.803
527.805
113.366
168.576
207.949
242.223
275.404
307.202
337.333
365.961
393.335
419.305
443.453
465.495
485.464
503.638
520.281
535.58
549.666
562.637
574.571
585.526
595.519
604.508
612.349
618.729
623.035
624.124
619.927
606.761
578.284
524.134
107.723
164.842
204.257
238.017
270.747
302.277
332.265
360.815
388.148
414.113
438.333
460.507
480.618
498.932
515.71
531.137
545.344
558.429
570.472
581.529
591.618
600.698
608.625
615.086
619.466
620.621
616.469
603.314
574.783
520.497
102.879
161.31
200.767
234.052
266.349
297.607
327.44
355.898
383.175
409.12
433.37
455.645
475.872
494.305
511.201
526.742
541.059
554.251
566.395
577.549
587.731
596.899
604.91
611.451
615.906
617.125
613.021
599.88
571.3
516.892
98.7259
157.966
197.443
230.276
262.152
293.136
322.804
351.16
378.372
404.285
428.548
450.898
471.219
489.754
506.752
522.397
536.815
550.105
562.345
573.591
583.861
593.115
601.21
607.83
612.358
613.643
609.588
596.463
567.84
513.321
95.1495
154.816
194.276
226.668
258.128
288.834
318.33
346.575
373.713
399.586
423.85
446.254
466.65
485.271
502.361
518.098
532.609
545.991
558.322
569.656
580.013
589.351
597.526
604.225
608.827
610.177
606.173
593.072
564.405
509.782
92.0383
151.856
191.255
223.214
254.259
284.681
313.997
342.124
369.181
395.004
419.263
441.704
462.16
480.854
498.024
513.846
528.443
541.912
554.328
565.747
576.187
585.607
593.862
600.638
605.313
606.728
602.784
589.706
560.993
506.276
89.2984
149.079
188.375
219.902
250.532
280.665
309.793
337.793
364.762
390.529
414.777
437.241
457.744
476.5
493.742
509.64
524.317
537.866
550.364
561.865
572.386
581.886
590.22
597.071
601.818
603.307
599.42
586.361
557.605
502.803
86.8536
146.475
185.628
216.725
246.938
276.774
305.707
333.574
360.448
386.158
410.386
432.86
453.398
472.207
489.511
505.479
520.23
533.856
546.432
558.011
568.611
578.188
586.598
593.525
598.35
599.912
596.079
583.039
554.239
499.362
84.6439
144.032
183.008
213.676
243.47
273.004
301.732
329.46
356.239
381.886
406.084
428.557
449.121
467.973
485.333
501.363
516.183
529.881
542.532
554.187
564.862
574.515
583
590.004
594.908
596.541
592.761
579.737
550.895
495.952
82.6226
141.741
180.51
210.749
240.121
269.346
297.873
325.458
352.133
377.708
401.865
424.328
444.909
463.797
481.205
497.295
512.177
525.943
538.664
550.391
561.14
570.865
579.428
586.512
591.492
593.193
589.464
576.455
547.572
492.574
80.7534
139.59
178.126
207.938
236.887
265.809
294.127
321.562
348.124
373.619
397.727
420.173
440.763
459.679
477.129
493.27
508.211
522.041
534.829
546.624
557.444
567.244
575.885
583.047
588.101
589.868
586.188
573.193
544.271
489.227
79.0081
137.568
175.852
205.236
233.769
262.386
290.487
317.764
344.207
369.618
393.668
416.087
436.679
455.616
473.102
489.29
504.285
518.174
531.026
542.888
553.779
563.655
572.371
579.608
584.735
586.566
582.932
569.95
540.992
485.912
77.3647
135.665
173.681
202.641
230.764
259.069
286.946
314.064
340.382
365.697
389.683
412.068
432.653
451.606
469.123
485.353
500.398
514.343
527.255
539.184
550.146
560.095
568.886
576.196
581.392
583.284
579.696
566.727
537.734
482.628
75.8061
133.87
171.608
200.145
227.863
255.852
283.505
310.456
336.641
361.852
385.768
408.113
428.687
447.65
465.192
481.459
496.55
510.548
523.519
535.514
546.545
556.565
565.427
572.808
578.071
580.025
576.48
563.523
534.498
479.374
74.3186
132.176
169.628
197.75
225.061
252.73
280.158
306.933
332.978
358.082
381.921
404.221
424.777
443.745
461.309
477.609
492.742
506.789
519.82
531.878
542.976
553.064
561.995
569.444
574.774
576.786
573.284
560.338
531.283
476.151
72.8915
130.573
167.735
195.448
222.353
249.702
276.898
303.491
329.392
354.384
378.141
400.39
420.924
439.892
457.472
473.801
488.973
503.068
516.156
528.275
539.437
549.591
558.589
566.105
571.499
573.568
570.107
557.172
528.09
472.959
71.5161
129.054
165.925
193.235
219.735
246.763
273.721
300.127
325.88
350.754
374.425
396.618
417.126
436.089
453.682
470.036
485.243
499.386
512.527
524.705
535.928
546.146
555.209
562.79
568.246
570.37
566.949
554.025
524.918
469.796
70.1854
127.612
164.192
191.107
217.202
243.909
270.622
296.838
322.438
347.191
370.772
392.905
413.382
432.336
449.938
466.313
481.552
495.74
508.933
521.166
532.448
542.728
551.854
559.498
565.015
567.193
563.81
550.896
521.767
466.664
68.8938
126.24
162.533
189.058
214.751
241.136
267.6
293.621
319.065
343.694
367.18
389.249
409.69
428.632
446.239
462.633
477.901
492.131
505.372
517.659
528.998
539.337
548.524
556.229
561.805
564.036
560.691
547.787
518.638
463.562
67.6365
124.932
160.944
187.086
212.378
238.44
264.65
290.475
315.759
340.259
363.648
385.649
406.051
424.977
442.584
458.993
474.289
488.559
501.846
514.183
525.577
535.974
545.22
552.984
558.617
560.899
557.59
544.696
515.53
460.489
66.4099
123.683
159.419
185.186
210.081
235.818
261.772
287.395
312.517
336.886
360.174
382.103
402.463
421.369
438.974
455.395
470.715
485.022
498.352
510.738
522.185
532.637
541.94
549.762
555.45
557.782
554.509
541.624
512.443
457.446
65.2106
122.489
157.957
183.355
207.855
233.267
258.961
284.382
309.339
333.573
356.757
378.612
398.925
417.808
435.408
451.837
467.179
481.52
494.891
507.324
518.821
529.326
538.684
546.562
552.305
554.684
551.446
538.571
509.378
454.432
64.036
121.343
156.552
181.589
205.698
230.785
256.217
281.432
306.221
330.318
353.395
375.172
395.436
414.293
431.885
448.319
463.681
478.054
491.463
503.94
515.485
526.041
535.453
543.385
549.18
551.607
548.402
535.537
506.334
451.447
62.8838
120.244
155.203
179.886
203.608
228.368
253.537
278.544
303.163
327.121
350.088
371.785
391.997
410.824
428.404
444.842
460.22
474.622
488.068
500.586
512.177
522.783
532.246
540.23
546.077
548.549
545.376
532.521
503.312
448.491
61.7522
119.187
153.905
178.243
201.582
226.015
250.919
275.716
300.163
323.979
346.834
368.448
388.605
407.4
424.966
441.403
456.796
471.224
484.704
497.261
508.897
519.55
529.063
537.098
542.995
545.511
542.37
529.524
500.311
445.564
60.6395
118.168
152.655
176.657
199.617
223.724
248.362
272.946
297.219
320.892
343.633
365.161
385.26
404.02
421.569
438.004
453.409
467.86
481.371
493.967
505.644
516.343
525.904
533.989
539.933
542.492
539.382
526.546
497.331
442.666
59.5444
117.185
151.452
175.125
197.712
221.492
245.863
270.234
294.331
317.859
340.483
361.923
381.961
400.684
418.213
434.643
450.057
464.53
478.071
490.701
502.418
513.161
522.769
530.901
536.892
539.493
536.412
523.586
494.373
439.796
58.4657
116.234
150.293
173.644
195.864
219.318
243.421
267.577
291.497
314.878
337.383
358.732
378.708
397.391
414.898
431.32
446.741
461.234
474.801
487.464
499.22
510.005
519.657
527.835
533.872
536.514
533.461
520.646
491.436
436.954
57.4023
115.315
149.174
172.214
194.07
217.2
241.034
264.975
288.716
311.947
334.333
355.59
375.5
394.14
411.623
428.035
443.46
457.97
471.562
484.257
496.048
506.874
516.569
524.792
530.872
533.553
530.529
517.723
488.52
434.14
56.3535
114.423
148.094
170.831
192.33
215.135
238.702
262.425
285.986
309.067
331.33
352.493
372.337
390.932
408.388
424.788
440.215
454.739
468.354
481.078
492.904
503.767
513.504
521.77
527.893
530.612
527.615
514.82
485.626
431.354
55.3184
113.558
147.051
169.493
190.641
213.123
236.422
259.927
283.307
306.237
328.376
349.442
369.216
387.765
405.191
421.577
437.004
451.541
465.176
477.927
489.786
500.686
510.463
518.77
524.935
527.691
524.72
511.935
482.753
428.595
54.2964
112.717
146.042
168.198
189.001
211.162
234.193
257.479
280.677
303.454
325.468
346.437
366.139
384.638
402.034
418.403
433.827
448.374
462.028
474.805
486.694
497.629
507.445
515.792
521.997
524.788
521.843
509.069
479.902
425.864
53.2868
111.898
145.066
166.944
187.408
209.251
232.013
255.08
278.095
300.718
322.606
343.475
363.104
381.552
398.914
415.265
430.684
445.24
458.911
471.71
483.629
494.597
504.449
512.836
519.079
521.905
518.985
506.222
477.072
423.16
52.2893
111.101
144.121
165.73
185.861
207.387
229.883
252.73
275.56
298.029
319.789
340.557
360.111
378.506
395.833
412.163
427.574
442.137
455.822
468.644
480.589
491.59
501.477
509.901
516.181
519.041
516.145
503.393
474.262
420.483
51.3033
110.323
143.205
164.554
184.359
205.569
227.799
250.426
273.072
295.385
317.016
337.681
357.159
375.499
392.788
409.096
424.498
439.065
452.764
465.605
477.576
488.606
498.527
506.987
513.303
516.196
513.323
500.583
471.475
417.833
50.3284
109.563
142.317
163.415
182.899
203.797
225.762
248.168
270.629
292.785
314.287
334.848
354.247
372.53
389.781
406.064
421.455
436.025
449.734
462.593
474.588
485.647
495.601
504.095
510.446
513.37
510.52
497.792
468.708
415.209
49.3643
108.821
141.455
162.309
181.48
202.068
223.769
245.955
268.23
290.229
311.6
332.056
351.375
369.6
386.809
403.066
418.445
433.015
446.733
459.609
471.626
482.712
492.696
501.224
507.608
510.563
507.735
495.019
465.962
412.612
48.4106
108.094
140.618
161.237
180.101
200.382
221.82
243.785
265.875
287.716
308.955
329.305
348.543
366.707
383.874
400.103
415.466
430.036
443.761
456.652
468.689
479.801
489.814
498.374
504.791
507.774
504.968
492.264
463.238
410.041
47.4671
107.383
139.805
160.197
178.76
198.738
219.914
241.659
263.562
285.245
306.351
326.593
345.749
363.851
380.974
397.173
412.52
427.086
440.818
453.721
465.778
476.914
486.955
495.545
501.993
505.005
502.219
489.529
460.534
407.496
46.5335
106.686
139.015
159.187
177.457
197.133
218.049
239.574
261.291
282.815
303.788
323.922
342.993
361.032
378.109
394.277
409.605
424.167
437.903
450.817
462.891
474.05
484.118
492.737
499.215
502.254
499.489
486.811
457.852
404.976
45.6096
106.002
138.245
158.207
176.189
195.568
216.225
237.53
259.06
280.425
301.264
321.288
340.275
358.249
375.279
391.414
406.722
421.277
435.015
447.94
460.03
471.209
481.302
489.95
496.456
499.522
496.777
484.113
455.19
402.482
44.6952
105.33
137.496
157.254
174.955
194.041
214.441
235.525
256.869
278.075
298.779
318.693
337.593
355.502
372.483
388.583
403.869
418.417
432.156
445.088
457.193
468.392
478.509
487.183
493.718
496.809
494.082
481.433
452.55
400.014
43.79
104.67
136.766
156.328
173.755
192.55
212.694
233.56
254.718
275.764
296.333
316.136
334.948
352.79
369.72
385.785
401.048
415.585
429.323
442.263
454.381
465.598
475.738
484.437
490.998
494.114
491.406
478.771
449.93
397.57
42.8939
104.022
136.055
155.427
172.587
191.095
210.986
231.633
252.605
273.491
293.924
313.616
332.339
350.112
366.991
383.019
398.256
412.783
426.519
439.463
451.593
462.828
472.988
481.712
488.299
491.438
488.747
476.127
447.331
395.151
42.0067
103.383
135.36
154.552
171.45
189.675
209.314
229.744
250.529
271.255
291.553
311.131
329.766
347.469
364.295
380.284
395.495
410.009
423.741
436.689
448.829
460.079
470.26
479.007
485.618
488.78
486.107
473.502
444.752
392.757
41.1283
102.755
134.683
153.699
170.343
188.289
207.678
227.891
248.49
269.056
289.218
308.683
327.227
344.86
361.631
377.58
392.763
407.263
420.99
433.941
446.089
457.354
467.554
476.323
482.957
486.14
483.484
470.896
442.194
390.387
40.2585
102.136
134.021
152.87
169.265
186.936
206.077
226.074
246.487
266.893
286.918
306.27
324.723
342.284
359
374.907
390.061
404.545
418.265
431.217
443.374
454.651
464.869
473.658
480.315
483.519
480.879
468.307
439.657
388.041
39.3972
101.526
133.374
152.063
168.215
185.615
204.51
224.291
244.519
264.766
284.654
303.891
322.252
339.74
356.4
372.265
387.387
401.855
415.567
428.519
440.681
451.971
462.205
471.014
477.692
480.916
478.292
465.737
437.14
385.72
38.5443
100.924
132.742
151.276
167.192
184.325
202.976
222.543
242.586
262.673
282.424
301.547
319.815
337.229
353.831
369.652
384.743
399.192
412.895
425.845
438.013
449.313
459.562
468.39
475.087
478.331
475.723
463.185
434.643
383.422
37.6996
100.33
132.123
150.51
166.195
183.065
201.475
220.828
240.687
260.614
280.229
299.236
317.41
334.75
351.294
367.07
382.127
396.556
410.249
423.196
435.367
446.677
456.94
465.785
472.502
475.764
473.171
460.651
432.167
381.147
36.8631
99.7439
131.518
149.763
165.223
181.835
200.004
219.146
238.822
258.589
278.066
296.958
315.039
332.303
348.786
364.517
379.54
393.947
407.628
420.571
432.745
444.063
454.339
463.201
469.936
473.215
470.637
458.135
429.711
378.896
36.0346
99.1648
130.925
149.035
164.276
180.633
198.565
217.496
236.988
256.596
275.937
294.713
312.698
329.886
346.309
361.993
376.98
391.365
405.033
417.971
430.146
441.471
451.758
460.636
467.388
470.684
468.12
455.637
427.274
376.668
35.2141
98.5926
130.344
148.325
163.353
179.46
197.155
215.878
235.187
254.636
273.84
292.5
310.39
327.5
343.862
359.497
374.449
388.81
402.463
415.394
427.569
438.9
449.198
458.09
464.859
468.17
465.621
453.157
424.858
374.463
34.4015
98.0269
129.774
147.631
162.452
178.314
195.775
214.29
233.417
252.708
271.774
290.318
308.112
325.145
341.444
357.03
371.944
386.28
399.917
412.841
425.016
436.351
446.659
455.564
462.348
465.675
463.139
450.695
422.462
372.281
33.5967
97.4674
129.216
146.955
161.573
177.194
194.423
212.732
231.678
250.81
269.74
288.167
305.865
322.819
339.055
354.591
369.466
383.776
397.397
410.312
422.484
433.824
444.14
453.057
459.856
463.197
460.674
448.251
420.086
370.121
32.7996
96.9138
128.667
146.294
160.715
176.099
193.099
211.203
229.969
248.943
267.736
286.047
303.648
320.523
336.695
352.18
367.016
381.298
394.901
407.806
419.975
431.317
441.641
450.57
457.382
460.736
458.226
445.824
417.729
367.983
32.0102
96.3659
128.129
145.648
159.878
175.03
191.802
209.703
228.289
247.106
265.762
283.956
301.46
318.256
334.363
349.796
364.591
378.845
392.429
405.323
417.488
428.832
439.162
448.101
454.926
458.294
455.796
443.416
415.392
365.867
31.2285
95.8234
127.601
145.017
159.061
173.985
190.532
208.231
226.638
245.298
263.818
281.895
299.302
316.017
332.058
347.439
362.193
376.417
389.981
402.863
415.023
426.367
436.703
445.652
452.488
455.868
453.383
441.025
413.074
363.773
30.4542
95.2861
127.082
144.401
158.264
172.964
189.288
206.787
225.016
243.52
261.903
279.863
297.173
313.807
329.782
345.109
359.821
374.014
387.558
400.426
412.579
423.923
434.264
443.221
450.068
453.46
450.987
438.651
410.775
361.7
29.6875
94.7537
126.571
143.797
157.484
171.965
188.069
205.369
223.421
241.769
260.017
277.86
295.071
311.624
327.532
342.806
357.474
371.636
385.157
398.012
410.158
421.5
431.844
440.809
447.667
451.069
448.607
436.295
408.496
359.649
28.9283
94.2261
126.069
143.207
156.723
170.989
186.875
203.978
221.853
240.047
258.159
275.885
292.998
309.469
325.31
340.528
355.153
369.281
382.78
395.619
407.757
419.097
429.444
438.415
445.282
448.695
446.245