/*--------------------------------*- C++ -*----------------------------------*\
  =========                 |
  \\      /  F ield         | OpenFOAM: The Open Source CFD Toolbox
   \\    /   O peration     | Website:  https://openfoam.org
    \\  /    A nd           | Version:  8
     \\/     M anipulation  |
\*---------------------------------------------------------------------------*/
FoamFile
{
    version     2.0;
    format      ascii;
    class       volScalarField;
    location    "1.1";
    object      N03;
}
// * * * * * * * * * * * * * * * * * * * * * * * * * * * * * * * * * * * * * //

dimensions      [0 0 0 0 0 0 0];

internalField   nonuniform List<scalar> 
6300
(
195.322
877.452
985.717
990.857
993.013
994.252
995.056
995.626
996.061
996.41
996.7
996.949
997.174
997.443
998.205
998.897
998.096
998.213
998.32
998.414
998.5
998.577
998.648
998.713
998.773
998.827
998.874
998.906
998.877
998.502
105.533
745.935
965.725
978.718
983.851
986.817
988.742
990.11
991.153
991.988
992.681
993.274
993.822
994.494
996.056
997.324
995.877
996.144
996.39
996.603
996.795
996.969
997.128
997.272
997.404
997.525
997.63
997.699
997.631
996.8
71.4849
646.464
945.36
966.061
973.891
978.583
981.698
983.939
985.655
987.032
988.179
989.179
990.191
991.899
994.274
995.346
993.392
993.831
994.235
994.584
994.898
995.184
995.443
995.679
995.895
996.091
996.261
996.372
996.256
994.896
54.8509
569.916
924.283
953.13
963.395
969.745
974.06
977.211
979.644
981.608
983.256
984.726
986.314
989.044
992.128
993.013
990.668
991.299
991.88
992.381
992.833
993.242
993.613
993.952
994.261
994.541
994.783
994.938
994.762
992.807
46.1377
513.229
903.056
940.322
952.771
960.653
966.114
970.159
973.313
975.878
978.052
980.041
982.279
985.976
989.566
989.453
987.759
988.595
989.364
990.028
990.626
991.168
991.66
992.108
992.516
992.886
993.204
993.402
993.153
990.543
41.6806
472.09
882.056
927.714
942.145
951.436
957.975
962.88
966.743
969.911
972.63
975.177
978.11
982.705
986.655
985.782
984.689
985.74
986.706
987.54
988.292
988.973
989.591
990.154
990.668
991.132
991.529
991.77
991.434
988.115
39.5399
442.47
861.622
915.326
931.583
942.173
949.721
955.445
959.996
963.764
967.041
970.176
973.827
979.245
983.452
982.012
981.475
982.754
983.919
984.93
985.842
986.668
987.418
988.101
988.723
989.286
989.764
990.046
989.607
985.534
38.7247
421.131
842.026
903.168
921.123
932.92
941.411
947.91
953.125
957.485
961.328
965.073
969.446
975.611
980.006
978.157
978.137
979.652
981.019
982.212
983.288
984.262
985.148
985.954
986.689
987.352
987.913
988.234
987.678
982.81
38.7259
405.675
823.444
891.242
910.791
923.713
933.086
940.32
946.172
951.115
955.543
959.998
965.673
972.499
976.356
974.227
974.694
976.448
978.019
979.395
980.638
981.765
982.789
983.722
984.572
985.337
985.982
986.337
985.649
979.95
39.2688
394.401
805.962
879.548
900.6
914.576
924.777
932.705
939.171
944.691
949.725
954.954
961.816
969.154
972.537
970.233
971.161
973.154
974.93
976.492
977.904
979.184
980.349
981.41
982.377
983.246
983.974
984.36
983.525
976.966
40.1951
386.12
789.59
868.083
890.559
905.527
916.507
925.094
932.151
938.244
943.905
949.941
957.875
965.606
968.581
966.189
967.551
969.782
971.763
973.512
975.093
976.529
977.834
979.025
980.11
981.084
981.894
982.305
981.309
973.864
41.407
380.002
774.289
856.841
880.671
896.577
908.292
917.505
925.134
931.797
938.103
944.956
953.836
961.76
963.588
962.106
963.877
966.344
968.528
970.463
972.214
973.805
975.253
976.574
977.777
978.855
979.745
980.177
979.004
970.653
42.8388
375.46
759.985
845.816
870.939
887.733
900.146
909.955
918.14
925.373
932.335
939.991
949.693
957.678
958.642
957.993
960.149
962.849
965.234
967.354
969.275
971.02
972.61
974.061
975.382
976.564
977.533
977.979
976.614
967.341
44.4429
372.069
746.586
835.002
861.361
879
892.076
902.458
911.187
919.001
926.703
935.674
945.45
953.414
953.744
953.858
956.38
959.306
961.889
964.193
966.282
968.181
969.912
971.492
972.93
974.215
975.26
975.713
974.142
963.936
46.1818
369.515
733.995
824.391
851.935
870.382
884.09
895.024
904.29
912.703
921.199
931.38
941.801
949.009
948.898
949.708
952.578
955.723
958.502
960.987
963.242
965.293
967.164
968.872
970.427
971.812
972.93
973.383
971.592
960.443
48.0241
367.562
722.112
813.977
842.659
861.879
876.193
887.662
897.463
906.494
915.813
927.089
937.972
944.501
944.101
945.552
948.75
952.108
955.08
957.743
960.161
962.363
964.372
966.206
967.876
969.36
970.546
970.993
968.967
956.87
49.9421
366.029
710.846
803.751
833.528
853.491
868.39
880.381
890.717
900.382
910.529
922.771
933.865
939.011
939.355
941.393
944.904
948.468
951.628
954.467
957.046
959.395
961.54
963.499
965.281
966.861
968.112
968.544
966.27
953.223
51.9101
364.771
700.109
793.705
824.54
845.219
860.683
873.187
884.062
894.373
905.333
918.409
929.543
933.611
934.659
937.239
941.044
944.809
948.154
951.164
953.9
956.395
958.673
960.754
962.647
964.32
965.632
966.04
963.505
949.508
53.9042
363.677
689.825
783.834
815.69
837.062
853.075
866.086
877.516
888.563
900.883
913.992
925.06
928.304
930.013
933.093
937.178
941.137
944.662
947.84
950.731
953.367
955.775
957.977
959.977
961.74
963.107
963.483
960.674
945.731
55.9016
362.656
679.926
774.128
806.973
829.018
845.568
859.087
871.094
882.936
896.502
910.219
920.458
923.089
925.419
928.962
933.31
937.458
941.159
944.5
947.541
950.316
952.852
955.17
957.274
959.124
960.541
960.876
957.78
941.898
57.8804
361.636
670.353
764.58
798.386
821.086
838.164
852.195
864.802
877.472
892.162
906.298
915.772
917.963
920.876
924.85
929.444
933.776
937.648
941.148
944.336
947.246
949.906
952.338
954.544
956.476
957.936
958.222
954.827
938.013
59.8197
360.559
661.056
755.185
789.924
813.264
830.865
845.414
858.645
872.152
887.829
902.128
910.137
912.926
916.385
920.76
925.587
930.096
934.134
937.789
941.119
944.161
946.942
949.484
951.788
953.798
955.296
955.522
951.817
934.083
61.7
359.38
651.991
745.935
781.583
805.552
823.674
838.763
852.722
867.672
883.479
897.767
904.609
907.975
911.947
916.693
921.741
926.422
930.622
934.427
937.896
941.064
943.963
946.612
949.009
951.093
952.623
952.78
948.754
930.111
63.5025
358.061
643.122
736.823
773.36
797.949
816.595
832.253
847.013
863.301
879.812
893.263
899.184
903.109
907.562
912.654
917.91
922.759
927.115
931.065
934.668
937.961
940.973
943.725
946.212
948.365
949.919
949.997
945.64
926.103
65.21
356.574
634.418
727.843
765.251
790.453
809.631
825.888
841.497
859.006
876.014
888.657
893.868
898.326
903.233
908.643
914.098
919.109
923.617
927.708
931.441
934.853
937.975
940.826
943.399
945.615
947.187
947.177
942.479
922.063
66.8067
354.899
625.852
718.991
757.252
783.065
802.786
819.672
836.15
854.745
871.979
883.093
888.661
893.626
898.959
904.664
910.309
915.476
920.131
924.358
928.216
931.744
934.972
937.918
940.573
942.847
944.429
944.321
939.272
917.996
68.2783
353.019
617.405
710.259
749.361
775.785
796.073
813.705
831.733
850.493
867.763
877.623
883.56
889.007
894.739
900.719
906.544
911.863
916.66
921.019
924.998
928.637
931.967
935.004
937.735
940.063
941.648
941.431
936.023
913.905
69.6123
350.924
609.057
701.643
741.575
768.614
789.503
807.966
827.443
846.968
863.408
872.248
878.562
884.467
890.574
896.81
902.808
908.273
913.207
917.693
921.789
925.535
928.962
932.087
934.89
937.265
938.846
938.509
932.734
909.795
70.798
348.606
600.794
693.138
733.892
761.556
783.081
802.435
823.247
843.33
858.952
866.968
873.666
880.007
886.464
892.939
899.102
904.709
909.776
914.384
918.592
922.441
925.962
929.169
932.04
934.455
936.024
935.559
929.409
905.67
71.8265
346.064
592.605
684.74
726.311
754.624
776.914
797.946
819.105
839.471
853.531
861.783
868.87
875.627
882.408
889.107
895.429
901.173
906.367
911.094
915.41
919.357
922.967
926.253
929.186
931.637
933.185
932.581
926.05
901.534
72.6908
343.296
584.48
676.444
718.833
747.826
770.984
793.617
815.754
835.441
848.197
856.693
864.171
871.322
878.407
885.318
891.791
897.668
902.985
907.825
912.245
916.286
919.981
923.341
926.332
928.811
930.33
929.578
922.66
897.39
73.3861
340.304
576.411
668.248
711.459
741.17
765.272
789.414
812.315
831.278
842.949
851.696
859.567
867.092
874.462
881.571
888.191
894.195
899.631
904.58
909.099
913.231
917.007
920.435
923.479
925.981
927.463
926.552
919.241
893.242
73.9092
337.094
568.393
660.15
704.2
734.766
760.733
785.295
808.676
826.113
837.788
846.793
855.059
862.937
870.573
877.87
884.63
890.758
896.308
901.361
905.975
910.194
914.046
917.539
920.63
923.148
924.584
923.506
915.796
889.094
74.259
333.672
560.421
652.149
697.065
728.599
756.366
782.046
804.879
821.007
832.712
841.985
850.644
858.853
866.74
874.215
881.11
887.357
893.018
898.171
902.876
907.176
911.1
914.654
917.787
920.314
921.696
920.44
912.329
884.948
74.4362
330.045
552.492
644.254
690.175
723.795
752.14
778.736
800.956
815.963
827.723
837.283
846.319
854.842
862.965
870.608
877.634
883.996
889.762
895.011
899.803
904.181
908.173
911.782
914.951
917.481
918.801
917.357
908.841
880.809
74.4432
326.223
544.616
636.596
684.917
719.186
748.9
775.253
796.008
810.982
822.823
832.687
842.084
850.902
859.247
867.052
874.202
880.675
886.542
891.884
896.758
901.209
905.266
908.926
912.126
914.65
915.899
914.259
905.335
876.68
74.2847
322.226
536.936
631.048
679.772
714.743
745.643
771.632
791.115
806.066
818.012
828.194
837.935
847.034
855.589
863.547
870.818
877.397
883.362
888.791
893.744
898.265
902.38
906.086
909.312
911.825
912.994
911.148
901.814
872.563
74.168
322.139
532.277
625.595
674.834
711.43
742.252
766.941
786.276
801.218
813.291
823.803
833.873
843.237
851.991
860.095
867.482
874.164
880.222
885.734
890.761
895.348
899.519
903.266
906.511
909.006
910.086
908.025
898.281
868.463
78.6764
321.927
527.764
621.805
671.258
708.13
738.753
762.289
781.492
796.44
808.662
819.512
829.896
839.511
848.454
856.698
864.196
870.977
877.124
882.716
887.814
892.462
896.683
900.467
903.726
906.194
907.177
904.894
894.738
864.382
82.7209
321.713
525.385
618.105
667.744
704.732
734.149
757.677
776.764
791.733
804.126
815.32
826.004
835.858
844.981
853.357
860.963
867.839
874.07
879.738
884.902
889.607
893.875
897.691
900.957
903.393
904.27
901.755
891.188
860.323
88.8495
324.026
523.033
614.482
664.178
700.148
729.602
753.106
772.094
787.103
799.681
811.226
822.197
832.278
841.571
850.075
857.784
864.75
871.062
876.801
882.029
886.787
891.097
894.939
898.207
900.603
901.365
898.612
887.634
856.29
94.542
326.237
520.707
610.829
659.312
695.631
725.108
748.579
767.483
782.548
795.327
807.231
818.476
828.773
838.228
846.853
854.661
861.713
868.102
873.909
879.195
884.002
888.35
892.213
895.478
897.825
898.464
895.464
884.078
852.285
99.7925
326.143
516.391
605.621
654.557
691.178
720.667
744.096
762.936
778.071
791.065
803.334
814.841
825.344
834.952
843.693
851.596
858.731
865.192
871.062
876.402
881.255
885.635
889.515
892.77
895.062
895.569
892.316
880.524
848.312
102.816
326.108
512.207
600.567
649.906
686.787
716.278
739.662
758.453
773.673
786.897
799.538
811.296
821.994
831.747
840.599
848.591
855.804
862.334
868.263
873.653
878.546
882.956
886.847
890.085
892.314
892.681
889.168
876.973
844.373
105.994
326.133
508.153
595.661
645.357
682.46
711.942
735.281
754.036
769.358
782.851
795.845
807.842
818.725
828.616
837.572
845.649
852.935
859.529
865.513
870.95
875.878
880.312
884.209
887.424
889.583
889.801
886.022
873.429
840.472
109.297
326.225
504.234
590.9
640.908
678.196
707.665
730.955
749.689
765.133
778.931
792.258
804.482
815.54
825.56
834.615
842.772
850.127
856.78
862.815
868.292
873.253
877.705
881.603
884.789
886.87
886.931
882.88
869.893
836.611
112.725
326.411
500.464
586.291
636.564
674.004
703.446
726.689
745.416
761.003
775.141
788.781
801.222
812.443
822.585
831.731
839.963
847.382
854.089
860.169
865.684
870.671
875.137
879.03
882.18
884.176
884.072
879.744
866.37
832.793
116.323
326.704
496.851
581.835
632.326
669.884
699.291
722.485
741.221
756.976
771.486
785.422
798.065
809.439
819.694
828.925
837.225
844.702
851.458
857.578
863.125
868.134
872.609
876.491
879.599
881.501
881.225
876.615
862.86
829.02
120.089
327.123
493.404
577.536
628.198
665.843
695.203
718.351
737.112
753.061
767.974
782.186
795.019
806.535
816.892
826.2
834.562
842.09
848.889
855.044
860.617
865.644
870.123
873.988
877.046
878.848
878.392
873.496
859.367
825.297
124.053
327.698
490.141
573.404
624.19
661.889
691.191
714.295
733.1
749.268
764.617
779.085
792.092
803.735
814.185
823.561
831.977
839.549
846.385
852.569
858.163
863.201
867.678
871.519
874.522
876.215
875.572
870.387
855.894
821.624
128.264
328.47
487.087
569.453
620.313
658.033
687.266
710.329
729.2
745.648
761.429
776.13
789.294
801.05
811.58
821.013
829.474
837.082
843.947
850.154
855.763
860.807
865.275
869.088
872.027
873.604
872.767
867.29
852.442
818.006
132.801
329.498
484.278
565.711
616.59
654.295
683.445
706.472
725.441
742.257
758.429
773.336
786.636
798.488
809.083
818.562
827.057
834.693
841.58
847.802
853.419
858.461
862.915
866.692
869.561
871.014
869.976
864.206
849.013
814.444
137.759
330.862
481.768
562.215
613.053
650.701
679.752
702.75
721.857
739.124
755.64
770.723
784.135
796.062
806.704
816.215
824.732
832.385
839.284
845.513
851.132
856.166
860.599
864.332
867.123
868.444
867.199
861.135
845.609
810.941
143.359
332.708
479.647
559.033
609.754
647.297
676.229
699.207
718.496
736.285
753.092
768.313
781.807
793.784
804.453
813.979
822.505
830.163
837.063
843.291
848.902
853.921
858.325
862.007
864.712
865.895
864.436
858.077
842.232
807.498
149.766
335.205
478.037
556.255
606.767
644.14
672.928
695.908
715.519
733.792
750.824
766.138
779.676
791.672
802.344
811.865
820.382
828.031
834.921
841.136
846.731
851.726
856.093
859.716
862.327
863.362
861.685
855.032
838.882
804.118
157.847
338.824
477.219
554.083
604.246
641.359
669.967
692.982
713.043
731.699
748.879
764.227
777.764
789.743
800.389
809.88
818.37
825.993
832.86
839.05
844.618
849.58
853.9
857.456
859.964
860.843
858.943
851.998
835.559
800.8
167.752
343.931
477.465
552.715
602.337
639.067
667.464
690.651
711.197
730.102
747.328
762.636
776.114
788.029
798.612
808.044
816.482
824.06
830.886
837.038
842.566
847.483
851.747
855.224
857.619
858.335
856.204
848.969
832.258
797.542
183.768
352.45
479.834
552.87
601.582
637.715
665.834
689.21
710.045
729.04
746.195
761.375
774.728
786.527
797.006
806.348
814.71
822.221
828.989
835.088
840.564
845.425
849.621
853.01
855.282
855.825
853.459
845.938
828.976
794.345
205.458
365.227
484.843
554.835
602.156
637.516
665.504
688.975
709.826
728.694
745.617
760.552
773.691
785.306
795.628
804.837
813.086
820.504
827.19
833.216
838.623
843.412
847.527
850.813
852.949
853.308
850.702
842.897
825.701
791.188
249.776
388.889
496.049
560.971
605.781
639.663
666.821
689.87
710.399
728.908
745.442
760.027
772.875
784.251
794.374
803.419
811.534
818.839
825.43
831.371
836.699
841.408
845.433
848.61
850.604
850.775
847.929
839.854
822.454
788.104
240.148
371.634
478.909
547.823
595.491
631.252
659.735
683.74
704.967
724.035
741.049
756.05
769.249
780.918
791.287
800.542
808.835
816.295
823.019
829.077
834.507
839.305
843.408
846.652
848.699
848.904
846.062
837.932
820.365
785.625
230.523
360.451
466.841
537.51
586.913
623.976
653.4
678.079
699.805
719.291
736.691
752.057
765.579
777.527
788.135
797.594
806.065
813.679
820.538
826.715
832.25
837.141
841.326
844.64
846.745
846.99
844.157
835.983
818.263
783.151
219.383
350.189
456.496
528.416
579.12
617.216
647.416
672.674
694.85
714.748
732.528
748.231
762.045
774.243
785.067
794.714
803.348
811.105
818.09
824.378
830.012
834.991
839.254
842.635
844.795
845.077
842.252
834.032
816.161
780.688
209.047
341.225
447.498
520.295
572.005
610.947
641.81
667.572
690.137
710.358
728.448
744.457
758.542
770.975
782.003
791.829
800.621
808.516
815.624
822.022
827.755
832.822
837.163
840.612
842.828
843.148
840.333
832.07
814.052
778.228
199.424
332.833
439.157
512.686
565.259
604.951
636.411
662.637
685.567
706.089
724.47
740.762
755.096
767.747
778.967
788.962
797.903
805.933
813.16
819.665
825.494
830.648
835.066
838.582
840.853
841.212
838.407
830.103
811.941
775.773
190.714
324.98
431.325
505.467
558.799
599.169
631.18
657.84
681.114
701.925
720.567
737.12
751.687
764.543
775.946
786.103
795.189
803.348
810.692
817.303
823.226
828.466
832.961
836.546
838.873
839.271
836.478
828.132
809.828
773.323
182.871
317.56
423.865
498.53
552.546
593.542
626.071
653.144
676.749
697.836
716.727
733.525
748.311
761.363
772.94
783.253
792.48
800.765
808.223
814.938
820.955
826.28
830.852
834.505
836.888
837.327
834.545
826.161
807.716
770.878
175.832
310.537
416.72
491.825
546.462
588.043
621.061
648.53
672.455
693.81
712.941
729.97
744.964
758.203
769.947
780.412
789.775
798.184
805.755
812.571
818.682
824.092
828.741
832.461
834.902
835.38
832.612
824.192
805.605
768.438
169.51
303.876
409.849
485.318
540.521
582.651
616.136
643.985
668.22
689.836
709.202
726.45
741.643
755.06
766.967
777.578
787.075
795.605
803.287
810.204
816.408
821.903
826.628
830.417
832.914
833.433
830.683
822.227
803.496
766.003
163.817
297.555
403.227
478.988
534.707
577.354
611.284
639.501
664.037
685.906
705.503
722.961
738.344
751.935
763.998
774.752
784.38
793.029
800.82
807.838
814.134
819.713
824.515
828.372
830.926
831.49
828.757
820.262
801.388
763.573
158.67
291.551
396.836
472.822
529.01
572.143
606.5
635.071
659.899
682.021
701.842
719.501
735.067
748.825
761.041
771.935
781.69
790.457
798.356
805.473
811.861
817.524
822.402
826.326
828.94
829.55
826.833
818.299
799.281
761.148
153.994
285.848
390.661
466.808
523.421
567.013
601.779
630.692
655.811
678.178
698.215
716.068
731.811
745.731
758.095
769.126
779.006
787.89
795.895
803.111
809.589
815.335
820.289
824.283
826.959
827.613
824.911
816.337
797.174
758.728
149.722
280.427
384.692
460.938
517.935
561.959
597.125
626.374
651.771
674.375
694.62
712.66
728.574
742.651
755.16
766.326
776.33
785.327
793.437
800.75
807.318
813.147
818.179
822.245
824.982
825.679
822.991
814.375
795.067
756.313
145.796
275.272
378.92
455.207
512.548
556.992
592.541
622.112
647.776
670.609
691.054
709.277
725.358
739.587
752.238
763.534
773.659
782.768
790.983
798.392
805.049
810.962
816.073
820.21
823.007
823.747
821.072
812.414
792.961
753.904
142.167
270.37
373.337
449.609
507.265
552.106
588.02
617.901
643.826
666.881
687.52
705.917
722.159
736.537
749.326
760.751
770.995
780.214
788.532
796.036
802.783
808.782
813.972
818.179
821.035
821.817
819.154
810.453
790.856
751.5
138.79
265.706
367.934
444.14
502.081
547.296
583.559
613.743
639.919
663.187
684.012
702.578
718.977
733.501
746.425
757.976
768.337
777.666
786.085
793.685
800.524
806.607
811.874
816.151
819.065
819.888
817.237
808.493
788.751
749.101
135.631
261.266
362.706
438.797
496.993
542.557
579.16
609.635
636.05
659.523
680.53
699.261
715.812
730.478
743.535
755.209
765.686
775.122
783.643
791.34
798.269
804.436
809.78
814.126
817.098
817.962
815.321
806.533
786.647
746.708
132.657
257.038
357.646
433.578
491.996
537.887
574.821
605.572
632.218
655.89
677.073
695.964
712.663
727.468
740.655
752.451
763.042
772.585
781.208
789.001
796.019
802.269
807.69
812.103
815.132
816.036
813.406
804.573
784.544
744.32
129.843
253.009
352.747
428.481
487.086
533.288
570.535
601.55
628.422
652.286
673.64
692.687
709.531
724.472
737.787
749.703
760.405
770.055
778.779
786.667
793.774
800.106
805.602
810.084
813.169
814.113
811.491
802.613
782.441
741.939
127.166
249.169
348.005
423.501
482.261
528.756
566.3
597.57
624.659
648.711
670.231
689.429
706.415
721.49
734.929
746.963
757.776
767.532
776.357
784.338
791.533
797.947
803.518
808.067
811.208
812.19
809.578
800.654
780.339
739.563
124.608
245.506
343.414
418.635
477.518
524.289
562.113
593.629
620.929
645.164
666.845
686.191
703.316
718.52
732.083
744.233
755.155
765.017
773.941
782.015
789.297
795.792
801.437
806.052
809.249
810.269
807.665
798.695
778.239
737.192
122.153
242.009
338.969
413.878
472.856
519.885
557.974
589.728
617.232
641.643
663.481
682.972
700.232
715.565
729.248
741.512
752.542
762.509
771.531
779.697
787.065
793.64
799.359
804.04
807.292
808.35
805.754
796.736
776.139
734.828
119.788
238.67
334.664
409.23
468.272
515.541
553.881
585.864
613.566
638.149
660.141
679.772
697.165
712.622
726.425
738.8
749.938
760.007
769.127
777.385
784.838
791.492
797.285
802.03
805.337
806.432
803.843
794.778
774.041
732.47
117.502
235.48
330.495
404.685
463.765
511.255
549.833
582.037
609.932
634.682
656.822
676.591
694.113
709.693
723.612
736.098
747.341
757.513
766.729
775.077
782.615
789.348
795.213
800.023
803.384
804.516
801.933
792.821
771.944
730.118
115.285
232.428
326.457
400.243
459.333
507.026
545.83
578.246
606.327
631.24
653.526
673.428
691.077
706.778
720.811
733.406
744.754
755.027
764.337
772.775
780.396
787.208
793.144
798.019
801.432
802.601
800.024
790.864
769.848
727.772
113.129
229.508
322.546
395.901
454.974
502.852
541.87
574.491
602.753
627.823
650.251
670.284
688.057
703.876
718.021
730.723
742.174
752.547
761.951
770.478
778.182
785.071
791.079
796.017
799.483
800.687
798.116
788.908
767.754
725.433
111.027
226.711
318.757
391.655
450.688
498.733
537.953
570.771
599.208
624.432
646.997
667.158
685.052
700.987
715.243
728.05
739.603
750.074
759.572
768.186
775.973
782.938
789.017
794.018
797.537
798.775
796.209
786.952
765.662
723.1
108.974
224.03
315.087
387.505
446.473
494.668
534.078
567.086
595.693
621.065
643.764
664.05
682.063
698.111
712.476
725.387
737.04
747.609
757.198
765.899
773.767
780.809
786.958
792.021
795.592
796.865
794.304
784.998
763.571
720.773
106.965
221.459
311.53
383.447
442.328
490.655
530.245
563.436
592.206
617.723
640.553
660.96
679.089
695.249
709.72
722.733
734.486
745.151
754.831
763.618
771.567
778.684
784.902
790.028
793.649
794.957
792.399
783.044
761.482
718.454
104.996
218.99
308.084
379.48
438.251
486.693
526.453
559.819
588.747
614.405
637.362
657.889
676.131
692.4
706.976
720.09
731.94
742.7
752.471
761.342
769.371
776.563
782.849
788.036
791.709
793.05
790.496
781.091
759.395
716.14
103.063
216.618
304.744
375.602
434.243
482.782
522.701
556.235
585.317
611.111
634.193
654.835
673.188
689.564
704.244
717.456
729.403
740.257
750.116
759.071
767.18
774.446
780.8
786.048
789.771
791.145
788.594
779.14
757.31
713.834
101.163
214.337
301.506
371.811
430.301
478.922
518.99
552.684
581.915
607.842
631.044
651.798
670.261
686.742
701.523
714.832
726.874
737.821
747.768
756.806
764.993
772.332
778.755
784.063
787.835
789.242
786.694
777.189
755.228
711.534
99.2942
212.142
298.368
368.104
426.425
475.11
515.319
549.167
578.54
604.596
627.915
648.78
667.349
683.933
698.813
712.219
724.354
735.392
745.426
754.547
762.811
770.223
776.712
782.08
785.902
787.341
784.795
775.24
753.147
709.241
97.4535
210.027
295.325
364.481
422.613
471.348
511.687
545.681
575.193
601.373
624.807
645.779
664.452
681.137
696.115
709.615
721.842
732.971
743.091
752.293
760.634
768.118
774.674
780.101
783.971
785.441
782.897
773.292
751.069
706.955
95.6395
207.988
292.374
360.938
418.865
467.634
508.093
542.228
571.873
598.174
621.718
642.796
661.57
678.355
693.429
707.022
719.34
730.557
740.762
750.045
758.462
766.017
772.638
778.124
782.043
783.544
781.001
771.345
748.994
704.677
93.8505
206.02
289.512
357.475
415.18
463.968
504.539
538.806
568.58
594.998
618.651
639.831
658.704
675.585
690.754
704.438
716.845
728.151
738.44
747.802
756.294
763.92
770.607
776.151
780.117
781.649
779.106
769.4
746.921
702.405
92.085
204.119
286.736
354.089
411.557
460.349
501.022
535.417
565.314
591.845
615.603
636.882
655.853
672.83
688.091
701.865
714.36
725.752
736.124
745.565
754.132
761.828
768.579
774.181
778.194
779.756
777.213
767.456
744.851
700.141
90.3419
202.282
284.043
350.779
407.994
456.777
497.544
532.058
562.074
588.716
612.575
633.952
653.018
670.087
685.439
699.302
711.883
723.361
733.815
743.334
751.975
759.74
766.555
772.214
776.274
777.865
775.322
765.514
742.783
697.883
88.6202
200.504
281.429
347.543
404.492
453.251
494.102
528.73
558.861
585.609
609.567
631.038
650.197
667.358
682.8
696.749
709.416
720.978
731.512
741.109
749.822
757.656
764.535
770.25
774.356
775.977
773.433
763.574
740.719
695.633
86.9188
198.781
278.893
344.379
401.049
449.77
490.698
525.434
555.674
582.524
606.579
628.142
647.392
664.642
680.171
694.206
706.957
718.603
729.217
738.889
747.675
755.577
762.518
768.289
772.441
774.09
771.546
761.635
738.657
693.391
85.237
197.112
276.43
341.286
397.664
446.335
487.331
522.167
552.513
579.463
603.61
625.264
644.602
661.939
677.555
691.674
704.507
716.235
726.928
736.676
745.533
753.502
760.506
766.332
770.529
772.206
769.66
759.698
736.598
691.156
83.5741
195.492
274.04
338.262
394.336
442.944
484
518.931
549.378
576.423
600.661
622.402
641.827
659.25
674.95
689.152
702.066
713.875
724.646
734.468
743.396
751.432
758.497
764.378
768.62
770.325
767.776
757.763
734.543
688.928
81.9294
193.919
271.718
335.306
391.064
439.598
480.705
515.726
546.269
573.406
597.732
619.558
639.067
656.574
672.356
686.64
699.634
711.523
722.371
732.267
741.265
749.366
756.493
762.428
766.714
768.446
765.895
755.831
732.491
686.708
80.3023
192.389
269.463
332.415
387.848
436.295
477.446
512.549
543.185
570.411
594.822
616.73
636.322
653.911
669.775
684.138
697.211
709.179
720.103
730.072
739.139
747.305
754.492
760.481
764.811
766.569
764.015
753.9
730.442
684.496
78.6925
190.902
267.271
329.589
384.687
433.036
474.223
509.403
540.126
567.438
591.931
613.92
633.592
651.261
667.205
681.647
694.797
706.843
717.842
727.882
737.018
745.249
752.496
758.538
762.91
764.695
762.138
751.971
728.397
682.291
77.0994
189.453
265.142
326.826
381.58
429.819
471.034
506.286
537.092
564.487
589.06
611.126
630.877
648.625
664.647
679.166
692.392
704.515
715.588
725.699
734.903
743.198
750.503
756.598
761.013
762.823
760.263
750.044
726.355
680.093
75.5226
188.041
263.072
324.125
378.526
426.645
467.881
503.198
534.084
561.558
586.207
608.35
628.177
646.002
662.1
676.695
689.996
702.195
713.341
723.522
732.793
741.151
748.515
754.662
759.119
760.955
758.39
748.12
724.317
677.904
73.9617
186.664
261.06
321.483
375.523
423.513
464.762
500.139
531.1
558.651
583.374
605.59
625.491
643.392
659.566
674.235
687.609
699.882
711.101
721.352
730.688
739.109
746.531
752.73
757.229
759.088
756.519
746.198
722.283
675.722
72.4165
185.32
259.103
318.9
372.573
420.423
461.677
497.108
528.141
555.764
580.56
602.847
622.821
640.795
657.042
671.785
685.231
697.578
708.868
719.187
728.589
737.072
744.552
750.801
755.341
757.225
754.651
744.279
720.252
673.548
70.8866
184.007
257.2
316.374
369.672
417.373
458.626
494.106
525.206
552.9
577.764
600.121
620.166
638.211
654.531
669.346
682.863
695.282
706.642
717.029
726.496
735.04
742.576
748.877
753.457
755.364
752.785
742.362
718.225
671.382
69.3718
182.722
255.348
313.905
366.822
414.364
455.609
491.132
522.295
550.056
574.988
597.412
617.525
635.641
652.031
666.917
680.503
692.994
704.423
714.877
724.408
733.013
740.605
746.956
751.576
753.506
750.922
740.447
716.202
669.224
67.8718
181.466
253.545
311.49
364.02
411.395
452.625
488.186
519.409
547.234
572.23
594.719
614.899
633.083
649.543
664.498
678.153
690.714
702.212
712.732
722.326
730.991
738.639
745.038
749.698
751.652
749.061
738.535
714.183
667.074
66.3864
180.236
251.79
309.129
361.266
408.467
449.674
485.268
516.547
544.433
569.49
592.043
612.288
630.539
647.067
662.09
675.813
688.443
700.008
710.593
720.25
728.974
736.677
743.125
747.824
749.799
747.202
736.626
712.168
664.931
64.9153
179.03
250.082
306.819
358.56
405.578
446.754
482.378
513.708
541.652
566.77
589.383
609.692
628.008
644.602
659.692
673.481
686.179
697.811
708.46
718.179
726.961
734.719
741.216
745.953
747.95
745.347
734.719
710.157
662.797
63.4584
177.847
248.417
304.561
355.9
402.728
443.867
479.515
510.893
538.892
564.067
586.74
607.11
625.49
642.149
657.304
671.159
683.924
695.621
706.334
716.114
724.954
732.766
739.311
744.086
746.104
743.494
732.816
708.151
660.67
62.0155
176.687
246.795
302.352
353.286
399.918
441.012
476.679
508.102
536.153
561.383
584.113
604.543
622.985
639.708
654.927
668.846
681.677
693.438
704.215
714.055
722.953
730.817
737.409
742.222
744.261
741.643
730.915
706.148
658.552
60.5865
175.547
245.215
300.191
350.717
397.145
438.187
473.87
505.334
533.435
558.717
581.502
601.99
620.493
637.278
652.56
666.542
679.438
691.263
702.102
712.001
720.956
728.873
735.512
740.361
742.421
739.796
729.017
704.15
656.442
59.1711
174.427
243.674
298.078
348.192
394.411
435.394
471.088
502.589
530.737
556.069
578.907
599.452
618.014
634.86
650.204
664.248
677.207
689.096
699.995
709.954
718.964
726.934
733.619
738.504
740.584
737.951
727.121
702.157
654.339
57.7693
173.326
242.172
296.01
345.711
391.714
432.632
468.332
499.866
528.059
553.44
576.329
596.928
615.547
632.453
647.858
661.963
674.985
686.935
697.895
707.912
716.978
724.999
731.73
736.651
738.75
736.109
725.229
700.168
652.245
56.381
172.242
240.706
293.988
343.272
389.054
429.9
465.603
497.167
525.401
550.828
573.766
594.419
613.094
630.058
645.523
659.687
672.771
684.782
695.802
705.876
714.997
723.069
729.845
734.802
736.92
734.269
723.34
698.183
650.159
55.0059
171.176
239.276
292.009
340.876
386.431
427.199
462.899
494.491
522.763
548.234
571.22
591.924
610.654
627.674
643.197
657.421
670.565
682.637
693.715
703.846
713.021
721.144
727.964
732.956
735.092
732.433
721.454
696.203
648.081
53.6442
170.125
237.88
290.073
338.52
383.844
424.528
460.222
491.836
520.145
545.658
568.69
589.443
608.226
625.302
640.883
655.164
668.367
680.499
691.635
701.822
711.051
719.223
726.087
731.114
733.268
730.6
719.572
694.227
646.011
52.2955
169.089
236.517
288.178
336.206
381.292
421.886
457.57
489.205
517.547
543.1
566.175
586.977
605.812
622.942
638.578
652.916
666.178
678.368
689.561
699.804
709.086
717.307
724.215
729.275
731.448
728.769
717.692
692.257
643.95
50.96
168.068
235.186
286.324
333.931
378.776
419.274
454.943
486.595
514.969
540.559
563.676
584.525
603.41
620.593
636.284
650.678
663.997
676.245
687.495
697.792
707.126
715.396
722.347
727.44