/*--------------------------------*- C++ -*----------------------------------*\
  =========                 |
  \\      /  F ield         | OpenFOAM: The Open Source CFD Toolbox
   \\    /   O peration     | Website:  https://openfoam.org
    \\  /    A nd           | Version:  8
     \\/     M anipulation  |
\*---------------------------------------------------------------------------*/
FoamFile
{
    version     2.0;
    format      ascii;
    class       volScalarField;
    location    "1.1";
    object      N04;
}
// * * * * * * * * * * * * * * * * * * * * * * * * * * * * * * * * * * * * * //

dimensions      [0 0 0 0 0 0 0];

internalField   nonuniform List<scalar> 
6300
(
200.954
904.348
1007.46
1006.63
1005.66
1005
1004.53
1004.16
1003.86
1003.61
1003.4
1003.21
1003.04
1002.94
1003.19
1002.08
1001.96
1001.85
1001.76
1001.67
1001.58
1001.51
1001.44
1001.37
1001.31
1001.25
1001.2
1001.17
1001.18
1001.41
111.708
789.673
1009.61
1011.2
1009.98
1009.04
1008.3
1007.71
1007.22
1006.79
1006.41
1006.08
1005.8
1005.66
1006.02
1003.94
1003.73
1003.53
1003.35
1003.19
1003.03
1002.89
1002.75
1002.63
1002.51
1002.41
1002.31
1002.24
1002.25
1002.66
76.9319
697.005
1007.07
1013.61
1012.75
1011.89
1011.13
1010.48
1009.91
1009.4
1008.94
1008.54
1008.25
1008.45
1007.45
1005.56
1005.29
1005.02
1004.78
1004.55
1004.34
1004.14
1003.95
1003.78
1003.62
1003.47
1003.33
1003.23
1003.24
1003.74
60.0282
624.468
1001.25
1014.56
1014.34
1013.77
1013.16
1012.56
1012.01
1011.49
1011.02
1010.61
1010.39
1010.77
1008.66
1006.95
1006.64
1006.32
1006.04
1005.76
1005.5
1005.26
1005.03
1004.82
1004.62
1004.43
1004.26
1004.13
1004.14
1004.67
51.3516
571.009
993.237
1014.44
1015
1014.85
1014.48
1014.04
1013.57
1013.11
1012.68
1012.32
1012.2
1012.65
1009.64
1008.11
1007.77
1007.43
1007.12
1006.81
1006.52
1006.24
1005.98
1005.74
1005.51
1005.3
1005.1
1004.95
1004.94
1005.46
47.1779
533.09
983.905
1013.54
1014.94
1015.29
1015.23
1014.99
1014.67
1014.31
1013.96
1013.7
1013.69
1014.15
1010.41
1009.05
1008.71
1008.36
1008.03
1007.7
1007.39
1007.1
1006.82
1006.55
1006.3
1006.07
1005.85
1005.68
1005.66
1006.1
45.5106
506.963
973.97
1012.06
1014.33
1015.21
1015.5
1015.51
1015.37
1015.15
1014.93
1014.79
1014.89
1015.31
1010.98
1009.79
1009.46
1009.12
1008.8
1008.46
1008.14
1007.83
1007.54
1007.26
1007
1006.75
1006.52
1006.34
1006.29
1006.61
45.3219
489.461
963.971
1010.12
1013.28
1014.69
1015.36
1015.65
1015.72
1015.67
1015.6
1015.6
1015.82
1016.17
1011.38
1010.36
1010.05
1009.73
1009.41
1009.08
1008.76
1008.45
1008.16
1007.88
1007.6
1007.35
1007.11
1006.91
1006.84
1006.99
46.0839
478.178
954.284
1007.81
1011.86
1013.83
1014.89
1015.47
1015.77
1015.92
1016.02
1016.24
1016.93
1015.75
1011.62
1010.75
1010.48
1010.19
1009.89
1009.58
1009.27
1008.97
1008.67
1008.39
1008.12
1007.86
1007.62
1007.41
1007.31
1007.25
47.5146
471.382
945.143
1005.21
1010.14
1012.67
1014.13
1015.01
1015.55
1015.92
1016.23
1016.68
1017.63
1015.25
1011.71
1011
1010.77
1010.52
1010.25
1009.96
1009.66
1009.38
1009.1
1008.82
1008.55
1008.3
1008.05
1007.84
1007.7
1007.38
49.4546
467.85
936.675
1002.36
1008.18
1011.26
1013.11
1014.31
1015.11
1015.7
1016.24
1016.93
1017.99
1014.67
1011.66
1011.09
1010.93
1010.73
1010.49
1010.23
1009.96
1009.69
1009.43
1009.16
1008.91
1008.66
1008.42
1008.2
1008.01
1007.41
51.8083
466.721
928.921
999.3
1006.01
1009.63
1011.89
1013.4
1014.47
1015.3
1016.07
1016.98
1018.07
1014.02
1011.48
1011.06
1010.96
1010.82
1010.62
1010.39
1010.16
1009.91
1009.67
1009.42
1009.18
1008.94
1008.71
1008.48
1008.24
1007.33
54.5139
467.379
921.871
996.073
1003.66
1007.83
1010.48
1012.31
1013.65
1014.73
1015.74
1016.84
1017.89
1013.29
1011.19
1010.91
1010.88
1010.8
1010.65
1010.46
1010.26
1010.05
1009.83
1009.61
1009.38
1009.16
1008.94
1008.7
1008.4
1007.15
57.528
469.375
915.478
992.702
1001.15
1005.86
1008.91
1011.06
1012.68
1014.02
1015.34
1017.13
1017.51
1012.49
1010.79
1010.65
1010.69
1010.68
1010.58
1010.44
1010.28
1010.1
1009.92
1009.72
1009.52
1009.31
1009.1
1008.86
1008.48
1006.86
60.8173
472.372
909.674
989.209
998.52
1003.76
1007.21
1009.67
1011.57
1013.2
1014.85
1017.02
1015.92
1011.63
1010.3
1010.28
1010.41
1010.46
1010.43
1010.34
1010.22
1010.08
1009.93
1009.76
1009.58
1009.4
1009.2
1008.95
1008.5
1006.48
64.3541
476.111
904.383
985.61
995.769
1001.54
1005.37
1008.16
1010.35
1012.27
1014.24
1016.6
1014.33
1010.7
1009.71
1009.82
1010.04
1010.16
1010.19
1010.15
1010.08
1009.99
1009.87
1009.73
1009.59
1009.42
1009.24
1008.99
1008.44
1006.02
68.1131
480.387
899.528
981.921
992.919
999.208
1003.43
1006.54
1009.03
1011.24
1013.49
1015.91
1012.74
1009.72
1009.03
1009.28
1009.58
1009.78
1009.87
1009.89
1009.87
1009.82
1009.75
1009.65
1009.53
1009.39
1009.22
1008.96
1008.32
1005.46
72.0705
485.038
895.033
978.153
989.98
996.787
1001.4
1004.83
1007.61
1010.12
1012.61
1015
1011.15
1008.68
1008.28
1008.66
1009.05
1009.32
1009.48
1009.56
1009.6
1009.59
1009.56
1009.5
1009.41
1009.3
1009.14
1008.87
1008.14
1004.83
76.2022
489.928
890.828
974.316
986.962
994.284
999.281
1003.03
1006.13
1009
1012.26
1013.92
1009.55
1007.59
1007.46
1007.96
1008.45
1008.79
1009.02
1009.17
1009.26
1009.3
1009.31
1009.29
1009.24
1009.15
1009.02
1008.73
1007.88
1004.11
80.4843
494.947
886.85
970.417
983.875
991.709
997.089
1001.17
1004.59
1007.83
1011.54
1011.64
1007.94
1006.46
1006.57
1007.19
1007.78
1008.2
1008.5
1008.71
1008.86
1008.96
1009.01
1009.03
1009.01
1008.96
1008.84
1008.54
1007.57
1003.32
84.892
500.002
883.043
966.464
980.726
989.068
994.831
999.243
1002.99
1006.6
1010.54
1009.4
1006.32
1005.28
1005.62
1006.37
1007.04
1007.55
1007.92
1008.2
1008.4
1008.55
1008.66
1008.72
1008.74
1008.71
1008.61
1008.29
1007.19
1002.46
89.3998
505.016
879.358
962.462
977.521
986.371
992.517
997.265
1001.35
1005.29
1009.3
1007.19
1004.69
1004.06
1004.61
1005.49
1006.25
1006.84
1007.29
1007.63
1007.9
1008.1
1008.25
1008.36
1008.41
1008.42
1008.33
1007.99
1006.76
1001.53
93.9819
509.923
875.752
958.416
974.265
983.622
990.155
995.254
999.752
1004.57
1007.88
1005.01
1003.06
1002.8
1003.56
1004.55
1005.41
1006.08
1006.6
1007.01
1007.34
1007.6
1007.8
1007.95
1008.05
1008.08
1008.01
1007.64
1006.27
1000.54
98.6117
514.668
872.191
954.328
970.964
980.828
987.752
993.219
998.155
1003.53
1005.24
1002.86
1001.41
1001.51
1002.46
1003.57
1004.52
1005.27
1005.87
1006.35
1006.74
1007.05
1007.3
1007.5
1007.63
1007.7
1007.64
1007.24
1005.72
999.48
103.262
519.204
868.643
950.202
967.621
977.994
985.315
991.162
996.524
1002.22
1002.63
1000.72
999.764
1000.18
1001.32
1002.55
1003.59
1004.42
1005.09
1005.64
1006.09
1006.46
1006.77
1007
1007.18
1007.28
1007.23
1006.8
1005.12
998.365
107.907
523.494
865.084
946.041
964.241
975.125
982.85
989.084
994.839
1000.69
1000.05
998.611
998.105
998.828
1000.14
1001.48
1002.61
1003.53
1004.27
1004.89
1005.41
1005.84
1006.19
1006.47
1006.69
1006.81
1006.77
1006.31
1004.46
997.194
112.519
527.505
861.493
941.846
960.826
972.227
980.374
987.082
993.845
998.979
997.51
996.52
996.439
997.446
998.922
1000.38
1001.6
1002.6
1003.42
1004.11
1004.69
1005.17
1005.57
1005.9
1006.16
1006.31
1006.28
1005.77
1003.75
995.97
117.072
531.212
857.854
937.619
957.381
969.305
977.893
985.109
992.545
996.03
994.999
994.448
994.766
996.039
997.677
999.238
1000.55
1001.63
1002.53
1003.29
1003.93
1004.47
1004.92
1005.3
1005.59
1005.77
1005.75
1005.19
1002.99
994.697
121.539
534.592
854.151
933.362
953.907
966.364
975.41
983.129
990.996
993.123
992.518
992.39
993.086
994.611
996.403
998.069
999.471
1000.63
1001.61
1002.43
1003.14
1003.74
1004.24
1004.66
1004.99
1005.2
1005.18
1004.57
1002.18
993.376
125.897
537.631
850.375
929.076
950.41
963.419
973.026
981.953
989.243
990.255
990.068
990.347
991.401
993.163
995.102
996.872
998.364
999.609
1000.66
1001.55
1002.32
1002.97
1003.53
1003.99
1004.36
1004.6
1004.58
1003.91
1001.33
992.011
130.121
540.314
846.516
924.762
946.893
960.479
970.697
980.5
986.178
987.426
987.648
988.316
989.71
991.699
993.779
995.651
997.231
998.558
999.683
1000.65
1001.47
1002.18
1002.79
1003.3
1003.7
1003.96
1003.94
1003.21
1000.43
990.604
134.189
542.634
842.569
920.422
943.36
957.546
968.388
978.818
983.135
984.634
985.255
986.297
988.016
990.218
992.434
994.407
996.076
997.483
998.682
999.713
1000.6
1001.37
1002.02
1002.57
1003.01
1003.29
1003.27
1002.48
999.486
989.158
138.08
544.584
838.529
916.057
939.825
954.727
967.021
976.946
980.114
981.881
982.886
984.288
986.32
988.724
991.07
993.143
994.899
996.388
997.66
998.757
999.706
1000.53
1001.23
1001.83
1002.3
1002.6
1002.56
1001.7
998.5
987.676
141.774
546.16
834.392
911.671
936.295
951.979
965.401
973.698
977.117
979.164
980.541
982.29
984.622
987.217
989.691
991.862
993.705
995.273
996.619
997.782
998.791
999.664
1000.42
1001.05
1001.56
1001.88
1001.83
1000.89
997.473
986.161
145.255
547.363
830.158
907.276
932.886
950.379
963.57
970.474
974.146
976.48
978.219
980.307
982.923
985.701
988.297
990.565
992.496
994.143
995.56
996.789
997.856
998.783
999.584
1000.26
1000.8
1001.13
1001.07
1000.05
996.406
984.614
148.508
548.195
825.836
902.998
930.92
948.563
960.244
967.274
971.205
973.828
975.918
978.339
981.224
984.175
986.892
989.257
991.273
992.998
994.486
995.779
996.905
997.884
998.731
999.448
1000.02
1000.36
1000.28
999.171
995.302
983.038
151.52
548.667
821.57
900.658
928.918
946.563
956.923
964.097
968.292
971.206
973.639
976.385
979.526
982.643
985.478
987.937
990.038
991.841
993.4
994.756
995.939
996.97
997.862
998.617
999.212
999.569
999.46
998.261
994.162
981.436
154.494
552.798
820.113
898.299
926.731
942.918
953.61
960.949
965.406
968.611
971.38
974.446
977.829
981.106
984.056
986.61
988.794
990.673
992.302
993.721
994.96
996.041
996.977
997.769
998.391
998.755
998.619
997.322
992.987
979.811
162.14
556.689
818.438
893.593
922.633
939.297
950.308
957.828
962.547
966.045
969.144
972.521
976.134
979.566
982.629
985.276
987.544
989.498
991.195
992.675
993.97
995.1
996.079
996.907
997.552
997.921
997.753
996.353
991.78
978.165
169.493
560.184
813.631
888.922
918.566
935.698
947.021
954.731
959.714
963.504
966.928
970.61
974.444
978.025
981.199
983.938
986.288
988.317
990.081
991.621
992.97
994.149
995.17
996.031
996.698
997.069
996.865
995.356
990.542
976.5
173.182
559.658
808.877
884.282
914.529
932.125
943.75
951.659
956.906
960.991
964.733
968.715
972.76
976.486
979.768
982.598
985.03
987.132
988.961
990.561
991.963
993.188
994.25
995.143
995.83
996.199
995.954
994.332
989.275
974.819
177.009
559.094
804.167
879.675
910.528
928.577
940.496
948.611
954.124
958.503
962.558
966.835
971.083
974.949
978.338
981.258
983.77
985.944
987.839
989.497
990.95
992.221
993.321
994.245
994.95
995.314
995.024
993.282
987.98
973.125
180.918
558.518
799.516
875.11
906.56
925.05
937.257
945.586
951.368
956.041
960.404
964.973
969.416
973.418
976.912
979.921
982.511
984.756
986.714
988.429
989.933
991.248
992.386
993.338
994.057
994.413
994.074
992.209
986.659
971.42
184.943
557.92
794.917
870.587
902.624
921.545
934.035
942.585
948.639
953.604
958.271
963.13
967.76
971.895
975.492
978.588
981.256
983.571
985.591
987.361
988.913
990.271
991.445
992.423
993.155
993.499
993.106
991.112
985.314
969.706
189.039
557.3
790.368
866.103
898.718
918.061
930.829
939.608
945.934
951.192
956.172
961.308
966.119
970.383
974.08
977.262
980.006
982.389
984.469
986.293
987.893
989.292
990.5
991.503
992.244
992.573
992.12
989.993
983.948
967.986
193.194
556.664
785.868
861.661
894.842
914.598
927.644
936.657
943.256
948.81
954.108
959.51
964.494
968.883
972.68
975.946
978.764
981.213
983.352
985.228
986.874
988.313
989.552
990.577
991.325
991.635
991.119
988.854
982.561
966.263
197.417
556.031
781.428
857.266
891.001
911.158
924.48
933.731
940.606
946.458
952.083
957.739
962.89
967.401
971.293
974.641
977.532
980.045
982.241
984.167
985.857
987.334
988.604
989.648
990.4
990.686
990.102
987.696
981.155
964.538
201.751
555.419
777.051
852.92
887.195
907.745
921.339
930.832
937.985
944.14
950.101
955.999
961.311
965.938
969.924
973.352
976.312
978.887
981.138
983.112
984.845
986.358
987.655
988.717
989.469
989.728
989.072
986.52
979.733
962.815
206.219
554.853
772.749
848.63
883.428
904.359
918.223
927.963
935.397
941.861
948.167
954.295
959.76
964.5
968.576
972.08
975.108
977.742
980.045
982.066
983.839
985.385
986.709
987.785
988.534
988.762
988.029
985.327
978.296
961.097
210.874
554.37
768.537
844.406
879.707
901.007
915.137
925.126
932.846
939.628
946.287
952.633
958.244
963.091
967.252
970.829
973.921
976.611
978.965
981.029
982.84
984.418
985.764
986.852
987.595
987.788
986.973
984.119
976.846
959.384
215.789
554.024
764.441
840.261
876.041
897.694
912.087
922.33
930.343
937.463
944.47
951.021
956.768
961.716
965.958
969.603
972.755
975.499
977.899
980.005
981.85
983.457
984.824
985.921
986.654
986.808
985.906
982.896
975.386
957.681
221.087
553.897
760.499
836.219
872.445
894.434
909.084
919.584
927.901
935.395
942.728
949.468
955.341
960.381
964.697
968.406
971.614
974.406
976.85
978.993
980.872
982.504
983.889
984.991
985.711
985.821
984.828
981.66
973.915
955.989
226.916
554.101
756.767
832.313
868.943
891.244
906.142
916.904
925.539
933.442
941.073
947.986
953.971
959.094
963.477
967.243
970.501
973.337
975.82
977.998
979.905
981.56
982.96
984.064
984.766
984.828
983.74
980.411
972.438
954.31
233.621
554.836
753.341
828.602
865.574
888.152
903.286
914.313
923.285
931.626
939.525
946.587
952.669
957.863
962.303
966.118
969.419
972.295
974.812
977.02
978.952
980.627
982.038
983.14
983.82
983.829
982.643
979.151
970.954
952.647
241.477
556.361
750.358
825.166
862.391
885.198
900.551
911.853
921.224
929.976
938.105
945.29
951.449
956.698
961.183
965.038
968.375
971.283
973.828
976.062
978.015
979.705
981.123
982.219
982.873
982.825
981.535
977.879
969.464
951.002
251.853
559.322
748.106
822.173
859.507
882.467
898.009
909.596
919.422
928.528
936.84
944.114
950.325
955.611
960.127
964.009
967.372
970.304
972.873
975.125
977.095
978.796
980.216
981.302
981.925
981.814
980.416
976.595
967.971
949.376
265.126
564.356
746.92
819.811
857.038
880.04
895.737
907.671
917.954
927.335
935.769
943.089
949.32
954.618
959.146
963.041
966.419
969.366
971.948
974.214
976.194
977.9
979.317
980.387
980.974
980.795
979.286
975.299
966.472
947.769
287.914
573.995
747.843
818.656
855.364
878.206
893.987
906.251
916.874
926.433
934.917
942.23
948.444
953.727
958.245
962.138
965.516
968.467
971.056
973.327
975.311
977.017
978.426
979.474
980.018
979.767
978.141
973.988
964.968
946.183
320.887
589.978
751.563
818.996
854.632
877.111
893.006
905.514
916.305
925.908
934.345
941.584
947.73
952.962
957.443
961.311
964.674
967.616
970.199
972.467
974.447
976.145
977.539
978.559
979.055
978.724
976.976
972.656
963.452
944.607
388.43
620.258
761.314
822.626
856.009
877.514
893.04
905.466
916.214
925.717
934.01
941.11
947.146
952.294
956.716
960.542
963.877
966.799
969.368
971.626
973.596
975.281
976.654
977.641
978.083
977.667
975.797
971.313
961.936
943.059
373.972
593.864
739.911
809.999
847.888
871.678
888.514
901.76
913.061
922.985
931.627
939.021
945.3
950.647
955.232
959.194
962.642
965.661
968.312
970.641
972.673
974.411
975.831
976.856
977.326
976.926
975.047
970.514
961.003
941.811
360.583
577.366
724.971
799.831
840.844
866.423
884.324
898.243
910.006
920.29
929.243
936.912
943.424
948.965
953.712
957.809
961.372
964.489
967.225
969.627
971.722
973.516
974.983
976.048
976.548
976.165
974.281
969.701
960.06
940.558
345.384
563.093
712.641
790.933
834.372
861.446
880.284
894.82
907.023
917.668
926.931
934.86
941.591
947.315
952.214
956.44
960.112
963.323
966.14
968.613
970.771
972.619
974.133
975.237
975.767
975.399
973.509
968.882
959.111
939.304
331.034
550.861
702.087
782.979
828.379
856.737
876.416
891.521
904.133
915.098
924.638
932.817
939.757
945.658
950.705
955.058
958.839
962.143
965.042
967.586
969.806
971.709
973.27
974.414
974.974
974.623
972.727
968.053
958.152
938.044
317.309
539.504
692.415
775.534
822.65
852.17
872.632
888.281
901.289
912.565
922.375
930.792
937.934
944.004
949.196
953.672
957.559
960.955
963.935
966.55
968.832
970.79
972.4
973.583
974.174
973.839
971.938
967.217
957.187
936.779
304.491
528.843
683.349
768.449
817.115
847.712
868.915
885.087
898.483
910.063
920.129
928.776
936.113
942.348
947.681
952.278
956.27
959.758
962.818
965.504
967.849
969.863
971.52
972.744
973.365
973.048
971.141
966.374
956.214
935.507
292.577
518.682
674.687
761.605
811.711
843.326
865.241
881.923
895.699
907.58
917.897
926.767
934.292
940.689
946.16
950.877
954.973
958.553
961.693
964.45
966.858
968.927
970.632
971.897
972.549
972.25
970.338
965.524
955.235
934.23
281.553
508.943
666.332
754.941
806.406
838.995
861.599
878.78
892.932
905.109
915.675
924.761
932.472
939.026
944.634
949.469
953.669
957.339
960.56
963.388
965.858
967.983
969.737
971.043
971.727
971.446
969.529
964.67
954.249
932.947
271.372
499.574
658.22
748.416
801.176
834.706
857.983
875.653
890.176
902.647
913.459
922.758
930.649
937.36
943.102
948.054
952.357
956.117
959.418
962.317
964.851
967.032
968.835
970.182
970.899
970.635
968.716
963.81
953.258
931.659
261.974
490.542
650.314
742.008
796.01
830.452
854.386
872.539
887.428
900.192
911.248
920.755
928.825
935.688
941.564
946.633
951.037
954.888
958.269
961.239
963.837
966.074
967.927
969.316
970.064
969.82
967.897
962.945
952.26
930.365
253.295
481.825
642.591
735.698
790.896
826.227
850.806
869.434
884.687
897.742
909.041
918.753
926.998
934.013
940.02
945.204
949.71
953.652
957.112
960.154
962.816
965.11
967.012
968.443
969.224
969
967.074
962.074
951.256
929.066
245.271
473.405
635.034
729.477
785.83
822.029
847.241
866.339
881.955
895.298
906.836
916.75
925.168
932.332
938.471
943.769
948.377
952.408
955.949
959.063
961.788
964.139
966.091
967.564
968.38
968.176
966.246
961.198
950.245
927.762
237.84
465.27
627.632
723.337
780.806
817.853
843.694
863.258
879.231
892.86
904.633
914.746
923.335
930.648
936.916
942.329
947.038
951.158
954.779
957.964
960.754
963.161
965.164
966.682
967.531
967.347
965.412
960.316
949.228
926.453
230.941
457.408
620.377
717.272
775.822
813.709
840.168
860.191
876.516
890.426
902.431
912.741
921.5
928.959
935.355
940.882
945.691
949.902
953.603
956.859
959.713
962.178
964.233
965.794
966.678
966.513
964.574
959.429
948.205
925.138
224.521
449.808
613.263
711.28
770.882
809.592
836.659
857.134
873.808
887.998
900.232
910.736
919.661
927.266
933.79
939.43
944.339
948.639
952.42
955.748
958.666
961.19
963.296
964.902
965.819
965.674
963.73
958.535
947.175
923.819
218.529
442.462
606.285
705.357
765.984
805.5
833.166
854.092
871.109
885.572
898.032
908.728
917.818
925.568
932.219
937.971
942.98
947.369
951.23
954.631
957.615
960.197
962.355
964.004
964.956
964.83
962.881
957.636
946.14
922.495
212.919
435.359
599.44
699.502
761.126
801.431
829.691
851.06
868.416
883.149
895.833
906.718
915.973
923.865
930.643
936.507
941.616
946.094
950.035
953.509
956.559
959.2
961.409
963.102
964.088
963.981
962.027
956.731
945.098
921.166
207.649
428.493
592.723
693.716
756.305
797.384
826.234
848.037
865.727
880.728
893.633
904.707
914.124
922.159
929.062
935.038
940.246
944.813
948.835
952.382
955.497
958.197
960.458
962.195
963.215
963.127
961.167
955.821
944.05
919.833
202.683
421.854
586.134
687.997
751.519
793.361
822.791
845.022
863.043
878.309
891.434
902.694
912.272
920.448
927.476
933.563
938.871
943.527
947.631
951.25
954.431
957.19
959.503
961.284
962.337
962.269
960.303
954.905
942.996
918.495
197.986
415.436
579.668
682.343
746.768
789.362
819.359
842.014
860.363
875.892
889.234
900.679
910.417
918.734
925.886
932.084
937.49
942.236
946.421
950.113
953.36
956.177
958.542
960.367
961.455
961.405
959.433
953.983
941.936
917.153
193.529
409.229
573.324
676.754
742.051
785.383
815.939
839.013
857.688
873.476
887.034
898.662
908.56
917.016
924.292
930.599
936.105
940.941
945.206
948.971
952.284
955.16
957.577
959.446
960.567
960.537
958.558
953.056
940.871
915.807
189.285
403.228
567.1
671.228
737.367
781.426
812.53
836.02
855.016
871.063
884.834
896.644
906.7
915.295
922.693
929.111
934.714
939.641
943.987
947.825
951.203
954.138
956.607
958.52
959.675
959.663
957.679
952.124
939.799
914.456
185.231
397.425
560.994
665.765
732.716
777.488
809.133
833.033
852.349
868.651
882.634
894.625
904.837
913.57
921.091
927.618
933.32
938.336
942.763
946.674
950.118
953.112
955.632
957.589
958.779
958.786
956.794
951.186
938.722
913.102
181.347
391.812
555.004
660.364
728.098
773.569
805.746
830.054
849.686
866.241
880.435
892.604
902.972
911.842
919.485
926.121
931.921
937.026
941.534
945.518
949.027
952.08
954.653
956.654
957.877
957.903
955.904
950.242
937.639
911.744
177.614
386.383
549.129
655.024
723.511
769.669
802.37
827.08
847.026
863.833
878.235
890.582
901.104
910.111
917.875
924.619
930.518
935.712
940.301
944.358
947.933
951.044
953.669
955.714
956.971
957.016
955.01
949.294
936.551
910.381
174.015
381.132
543.366
649.745
718.957
765.787
799.005
824.114
844.37
861.427
876.036
888.559
899.235
908.377
916.262
923.114
929.111
934.394
939.063
943.193
946.834
950.004
952.681
954.77
956.061
956.124
954.111
948.34
935.458
909.016
170.538
376.051
537.715
644.528
714.436
761.922
795.651
821.154
841.719
859.023
873.837
886.535
897.364
906.64
914.645
921.605
927.699
933.072
937.821
942.024
945.73
948.959
951.688
953.822
955.146
955.228
953.207
947.381
934.359
907.646
167.169
371.135
532.172
639.37
709.946
758.076
792.307
818.201
839.072
856.621
871.638
884.511
895.49
904.901
913.026
920.093
926.284
931.746
936.575
940.85
944.622
947.91
950.691
952.869
954.227
954.327
952.298
946.417
933.255
906.274
163.897
366.377
526.738
634.273
705.489
754.248
788.974
815.255
836.428
854.221
869.44
882.485
893.615
903.159
911.403
918.577
924.865
930.416
935.325
939.672
943.51
946.857
949.69
951.912
953.304
953.422
951.384
945.448
932.146
904.898
160.713
361.771
521.409
629.236
701.064
750.437
785.653
812.316
833.789
851.823
867.243
880.459
891.739
901.415
909.777
917.058
923.443
929.081
934.071
938.491
942.394
945.8
948.684
950.95
952.376
952.512
950.467
944.474
931.031
903.519
157.609
357.312
516.185
624.259
696.672
746.644
782.342
809.384
831.154
849.428
865.046
878.433
889.861
899.669
908.149
915.535
922.017
927.743
932.813
937.305
941.273
944.738
947.675
949.985
951.445
951.598
949.544
943.495
929.912
902.136
154.578
352.993
511.064
619.342
692.313
742.869
779.042
806.459
828.524
847.035
862.85
876.406
887.982
897.921
906.518
914.01
920.587
926.402
931.551
936.115
940.149
943.673
946.661
949.016
950.509
950.68
948.617
942.511
928.788
900.751
151.612
348.81
506.044
614.484
687.986
739.112
775.754
803.541
825.898
844.644
860.656
874.379
886.101
896.171
904.885
912.481
919.154
925.057
930.285
934.922
939.021
942.604
945.644
948.042
949.569
949.758
947.686
941.523
927.659
899.363
148.706
344.757
501.123
609.685
683.693
735.372
772.477
800.63
823.277
842.257
858.462
872.352
884.22
894.419
903.249
910.95
917.718
923.708
929.016
933.725
937.889
941.53
944.623
947.065
948.625
948.832
946.75
940.529
926.526
897.972
145.856
340.829
496.3
604.945
679.432
731.651
769.211
797.726
820.66
839.872
856.27
870.325
882.338
892.665
901.611
909.416
916.279
922.357
927.744
932.524
936.754
940.454
943.598
946.084
947.678
947.902
945.81
939.532
925.388
896.578
143.057
337.02
491.573
600.263
675.205
727.949
765.957
794.83
818.049
837.49
854.08
868.298
880.455
890.91
899.971
907.879
914.837
921.002
926.468
931.32
935.615
939.373
942.569
945.099
946.726
946.968
944.866
938.529
924.245
895.182
140.305
333.327
486.94
595.64
671.011
724.264
762.715
791.942
815.442
835.111
851.89
866.272
878.571
889.154
898.328
906.34
913.392
919.644
925.188
930.112
934.472
938.289
941.536
944.11
945.771
946.029
943.917
937.522
923.098
893.783
137.597
329.744
482.4
591.075
666.85
720.599
759.485
789.061
812.84
832.735
849.703
864.246
876.687
887.396
896.684
904.799
911.945
918.282
923.906
928.901
933.326
937.201
940.5
943.118
944.812
945.088
942.965
936.511
921.947
892.383
134.931
326.267
477.951
586.568
662.723
716.952
756.266
786.189
810.244
830.363
847.517
862.22
874.803
885.637
895.039
903.256
910.495
916.918
922.62
927.687
932.176
936.11
939.461
942.123
943.85
944.142
942.008
935.495
920.791
890.979
132.302
322.892
473.591
582.118
658.63
713.324
753.06
783.324
807.653
827.993
845.333
860.195
872.918
883.877
893.391
901.71
909.042
915.552
921.332
926.47
931.023
935.015
938.418
941.123
942.884
943.192
941.048
934.475
919.631
889.574
129.71
319.614
469.32
577.725
654.571
709.715
749.866
780.467
805.067
825.628
843.151
858.172
871.033
882.117
891.742
900.162
907.587
914.182
920.04
925.249
929.867
933.918
937.372
940.121
941.914
942.239
940.083
933.451
918.468
888.166
127.153
316.43
465.134
573.389
650.545
706.125
746.685
777.619
802.487
823.266
840.972
856.149
869.148
880.355
890.092
898.613
906.129
912.81
918.746
924.026
928.708
932.817
936.322
939.115
940.941
941.282
939.115
932.422
917.3
886.757
124.628
313.335
461.032
569.11
646.553
702.555
743.516
774.778
799.912
820.908
838.794
854.127
867.263
878.593
888.44
897.061
904.67
911.435
917.449
922.799
927.546
931.713
935.27
938.106
939.964
940.322
938.143
931.39
916.128
885.346
122.134
310.326
457.014
564.886
642.595
699.005
740.36
771.947
797.343
818.553
836.619
852.106
865.378
876.83
886.787
895.508
903.208
910.058
916.149
921.57
926.381
930.606
934.214
937.093
938.985
939.358
937.167
930.353
914.953
883.932
119.67
307.399
453.076
560.718
638.671
695.474
737.217
769.123
794.78
816.203
834.446
850.086
863.494
875.066
885.133
893.954
901.744
908.679
914.847
920.338
925.213
929.495
933.155
936.078
938.002
938.391
936.187
929.313
913.774
882.518
117.234
304.551
449.218
556.605
634.781
691.963
734.086
766.309
792.223
813.856
832.276
848.068
861.61
873.303
883.478
892.398
900.278
907.297
913.542
919.103
924.043
928.382
932.093
935.059
937.015
937.42
935.204
928.269
912.591
881.101
114.826
301.779
445.438
552.547
630.925
688.472
730.969
763.503
789.672
811.514
830.109
846.052
859.727
871.539
881.822
890.84
898.81
905.913
912.235
917.866
922.869
927.267
931.028
934.037
936.026
936.446
934.217
927.22
911.405
879.683
112.444
299.078
441.734
548.543
627.103
685.001
727.865
760.706
787.127
809.176
827.944
844.037
857.844
869.774
880.165
889.281
897.341
904.528
910.925
916.626
921.693
926.148
929.961
933.013
935.033
935.469
933.227
926.168
910.215
878.264
110.088
296.447
438.105
544.593
623.315
681.551
724.774
757.918
784.589
806.842
825.782
842.023
855.962
868.01
878.508
887.721
895.87
903.14
909.613
915.384
920.514
925.027
928.89
931.985
934.038
934.489
932.233
925.113
909.022
876.843
107.757
293.882
434.55
540.697
619.561
678.121
721.697
755.139
782.056
804.512
823.623
840.012
854.08
866.246
876.85
886.16
894.397
901.75
908.3
914.14
919.333
923.903
927.817
930.955
933.039
933.505
931.235
924.053
907.825
875.421
105.45
291.381
431.065
536.854
615.841
674.711
718.633
752.369
779.53
802.187
821.468
838.002
852.2
864.482
875.192
884.598
892.923
900.358
906.984
912.893
918.149
922.776
926.741
929.922
932.038
932.518
930.235
922.99
906.626
873.998
103.167
288.94
427.651
533.063
612.155
671.322
715.583
749.608
777.011
799.867
819.315
835.994
850.32
862.718
873.533
883.035
891.448
898.965
905.666
911.644
916.963
921.647
925.662
928.886
931.034
931.529
929.231
921.924
905.423
872.574
100.907
286.557
424.306
529.325
608.503
667.955
712.546
746.857
774.498
797.552
817.166
833.988
848.442
860.954
871.873
881.47
889.971
897.57
904.346
910.393
915.775
920.516
924.581
927.847
930.027
930.536
928.223
920.854
904.217
871.148
98.6702
284.23
421.028
525.638
604.885
664.608
709.523
744.116
771.992
795.241
815.019
831.985
846.565
859.191
870.214
879.906
888.493
896.174
903.024
909.14
914.584
919.382
923.498
926.806
929.017
929.54
927.213
919.78
903.008
869.722
96.4552
281.957
417.815
522.002
601.3
661.284
706.512
741.383
769.493
792.935
812.877
829.984
844.689
857.428
868.554
878.34
887.014
894.775
901.7
907.884
913.392
918.246
922.412
925.762
928.004
928.541
926.199
918.704
901.796
868.295
94.262
279.734
414.667
518.416
597.749
657.98
703.516
738.661
767
790.634
810.738
827.985
842.815
855.666
866.894
876.774
885.534
893.376
900.375
906.627
912.197
917.107
921.323
924.716
926.989
927.539
925.182
917.624
900.581
866.867
92.0904
277.56
411.581
514.881
594.232
654.699
700.533
735.948
764.515
788.338
808.602
825.988
840.942
853.905
865.234
875.207
884.053
891.975
899.048
905.368
911
915.966
920.232
923.667
925.971
926.535
924.162
916.54
899.364
865.438
89.9399
275.433
408.557
511.395
590.748
651.439
697.563
733.245
762.036
786.047
806.47
823.994
839.07
852.144
863.575
873.64
882.571
890.573
897.72
904.107
909.801
914.824
919.139
922.616
924.95
925.528
923.139
915.454
898.144
864.009
87.8103
273.35
405.593
507.958
587.297
648.2
694.607
730.551
759.565
783.762
804.342
822.003
837.2
850.384
861.915
872.073
881.089
889.17
896.39
902.845
908.6
913.679
918.044
921.562
923.927
924.518
922.113
914.364
896.921
862.579
85.7013
271.31
402.687
504.57
583.88
644.984
691.666
727.868
757.1
781.481
802.217
820.014
835.332
848.625
860.256
870.505
879.605
887.765
895.058
901.581
907.398
912.532
916.947
920.506
922.902
923.505
921.084
913.272
895.695
861.149
83.6128
269.311
399.839
501.229
580.495
641.789
688.738
725.194
754.643
779.206
800.097
818.028
833.466
846.867
858.597
868.937
878.121
886.36
893.726
900.315
906.193
911.383
915.847
919.448
921.874
922.49
920.052
912.176
894.467
859.718
81.5446
267.351
397.046
497.935
577.144
638.616
685.824
722.531
752.193
776.936
797.98
816.044
831.601
845.11
856.938
867.369
876.636
884.953
892.392
899.048
904.987
910.232
914.746
918.388
920.844
921.472
919.018
911.078
893.237
858.287
79.4964
265.429
394.308
494.688
573.826
635.465
682.925
719.878
749.751
774.672
795.868
814.064
829.739
843.354
855.28
865.801
875.151
883.546
891.056
897.779
903.779
909.08
913.642
917.326
919.811
920.452
917.98
909.976
892.004
856.855
77.4681
263.542
391.624
491.487
570.54
632.336
680.039
717.235
747.316
772.413
793.759
812.086
827.878
841.6
853.622
864.232
873.665
882.138
889.72
896.509
902.57
907.925
912.537
916.261
918.776
919.429
916.94
908.872
890.769
855.423