/*--------------------------------*- C++ -*----------------------------------*\
  =========                 |
  \\      /  F ield         | OpenFOAM: The Open Source CFD Toolbox
   \\    /   O peration     | Website:  https://openfoam.org
    \\  /    A nd           | Version:  8
     \\/     M anipulation  |
\*---------------------------------------------------------------------------*/
FoamFile
{
    version     2.0;
    format      ascii;
    class       volScalarField;
    location    "1.1";
    object      P3;
}
// * * * * * * * * * * * * * * * * * * * * * * * * * * * * * * * * * * * * * //

dimensions      [0 0 -1 0 0 0 0];

internalField   nonuniform List<scalar> 
6300
(
0
0
0
0
0
0
0
0
0
0
0
0
0
0
0
0
0.619834
0.738954
0.872274
1.02049
1.18427
1.36427
1.56112
1.77544
2.00789
2.25997
2.53844
2.88149
3.51559
6.2527
0
0
0
0
0
0
0
0
0
0
0
0
0
0
0
0
0.640145
0.759176
0.89191
1.03899
1.20103
1.37867
1.57249
1.78313
2.01133
2.25881
2.5329
2.87256
3.50609
6.23946
0
0
0
0
0
0
0
0
0
0
0
0
0
0
0
0
0.6568
0.777003
0.910785
1.05875
1.22151
1.39964
1.59373
1.80438
2.03235
2.27941
2.55291
2.89202
3.52779
6.26554
0
0
0
0
0
0
0
0
0
0
0
0
0
0
0
0
0.673502
0.794518
0.928849
1.07703
1.23971
1.41748
1.6109
1.82052
2.04709
2.29233
2.5638
2.9016
3.54158
6.27883
0
0
0
0
0
0
0
0
0
0
0
0
0
0
0
0.57957
0.688479
0.810019
0.944594
1.09277
1.25524
1.43255
1.62525
1.83391
2.05926
2.30309
2.57316
2.91058
3.55548
6.29183
0
0
0
0
0
0
0
0
0
0
0
0
0
0
0
0.594183
0.703754
0.825783
0.960432
1.10858
1.27079
1.44759
1.63954
1.84719
2.0713
2.31374
2.5825
2.9198
3.56979
6.30391
0
0
0
0
0
0
0
0
0
0
0
0
0
0
0
0.609142
0.719364
0.841628
0.976431
1.12452
1.28644
1.4627
1.65386
1.86048
2.08335
2.32441
2.59192
2.92922
3.58426
6.31507
0
0
0
0
0
0
0
0
0
0
0
0
0
0
0
0.624438
0.7353
0.857704
0.992647
1.14065
1.30224
1.47794
1.66829
1.87387
2.09548
2.33514
2.60141
2.93876
3.59877
6.32535
0
0
0
0
0
0
0
0
0
0
0
0
0
0
0
0.64009
0.751312
0.874043
1.0091
1.15699
1.31823
1.49334
1.68285
1.88736
2.10769
2.34593
2.61094
2.94837
3.61327
6.33479
0
0
0
0
0
0
0
0
0
0
0
0
0
0
0
0.656118
0.767628
0.890662
1.02581
1.17356
1.33442
1.5089
1.69754
1.90094
2.11996
2.35675
2.62048
2.95801
3.62771
6.34345
0
0
0
0
0
0
0
0
0
0
0
0
0
0
0
0.672369
0.784264
0.907574
1.04278
1.19036
1.3508
1.52463
1.71237
1.91462
2.13227
2.36757
2.62999
2.96762
3.64206
6.35133
0
0
0
0
0
0
0
0
0
0
0
0
0
0
0.58696
0.688889
0.801235
0.924791
1.06002
1.20739
1.36739
1.54052
1.72731
1.92837
2.14461
2.37835
2.63943
2.97718
3.65628
6.35842
0
0
0
0
0
0
0
0
0
0
0
0
0
0
0.603471
0.705785
0.818555
0.942326
1.07755
1.22468
1.38419
1.55657
1.74237
1.94218
2.15695
2.38908
2.64878
2.98665
3.67035
6.36472
0
0
0
0
0
0
0
0
0
0
0
0
0
0
0.620275
0.723074
0.836236
0.960188
1.09536
1.24221
1.40118
1.57278
1.75752
1.95603
2.16926
2.39973
2.65801
2.996
3.68424
6.3702
0
0
0
0
0
0
0
0
0
0
0
0
0
0
0.637414
0.74077
0.854291
0.978389
1.11348
1.25999
1.41839
1.58914
1.77277
1.96991
2.18154
2.41027
2.66709
3.00523
3.69794
6.37484
0
0
0
0
0
0
0
0
0
0
0
0
0
0
0.655007
0.758889
0.872735
0.996937
1.1319
1.27803
1.43579
1.60563
1.7881
1.98381
2.19376
2.42068
2.67599
3.01429
3.71142
6.37859
0
0
0
0
0
0
0
0
0
0
0
0
0
0.57792
0.673072
0.777446
0.891578
1.01584
1.15062
1.29633
1.45339
1.62227
1.8035
1.99769
2.20589
2.43095
2.68471
3.02318
3.72464
6.38142
0
0
0
0
0
0
0
0
0
0
0
0
0
0.595997
0.691627
0.796457
0.910834
1.03511
1.16967
1.31488
1.47119
1.63904
1.81895
2.01155
2.21792
2.44103
2.69321
3.03186
3.73758
6.38327
0
0
0
0
0
0
0
0
0
0
0
0
0
0.614446
0.71069
0.815938
0.930515
1.05476
1.18903
1.3337
1.48918
1.65592
1.83444
2.02538
2.22983
2.45092
2.70148
3.04033
3.75021
6.38409
0
0
0
0
0
0
0
0
0
0
0
0
0
0.633458
0.730281
0.835904
0.950634
1.07479
1.20872
1.35278
1.50736
1.67293
1.84997
2.03915
2.2416
2.46059
2.70949
3.04854
3.76248
6.38384
0
0
0
0
0
0
0
0
0
0
0
0
0
0.653057
0.750419
0.856372
0.971204
1.09522
1.22874
1.37211
1.52573
1.69004
1.86552
2.05285
2.2532
2.47003
2.71721
3.05647
3.77436
6.38242
0
0
0
0
0
0
0
0
0
0
0
0
0.582922
0.673265
0.771123
0.877359
0.992238
1.11605
1.24909
1.39171
1.54429
1.70724
1.88107
2.06646
2.26462
2.47919
2.72463
3.0641
3.7858
6.37979
0
0
0
0
0
0
0
0
0
0
0
0
0.603364
0.694106
0.792416
0.898881
1.01375
1.13729
1.26979
1.41157
1.56301
1.72453
1.89662
2.07995
2.27583
2.48807
2.73173
3.07139
3.79677
6.37585
0
0
0
0
0
0
0
0
0
0
0
0
0.624551
0.715605
0.814317
0.920955
1.03575
1.15895
1.29082
1.43169
1.58191
1.74189
1.91213
2.09332
2.28681
2.49664
2.73846
3.07831
3.80721
6.37054
0
0
0
0
0
0
0
0
0
0
0
0
0.646235
0.737789
0.836849
0.9436
1.05825
1.18103
1.31221
1.45208
1.60098
1.75932
1.92761
2.10654
2.29755
2.50487
2.7448
3.08483
3.81707
6.36377
0
0
0
0
0
0
0
0
0
0
0
0.581379
0.668619
0.760684
0.860034
0.966833
1.08127
1.20356
1.33394
1.47271
1.6202
1.77681
1.94303
2.11959
2.308
2.51273
2.75073
3.0909
3.82628
6.35544
0
0
0
0
0
0
0
0
0
0
0
0.604019
0.691796
0.784318
0.883896
0.990672
1.10482
1.22653
1.35603
1.49361
1.63957
1.79433
1.95837
2.13245
2.31815
2.5202
2.75621
3.0965
3.83479
6.34546
0
0
0
0
0
0
0
0
0
0
0
0.62758
0.715802
0.808719
0.908457
1.01513
1.1289
1.24995
1.37847
1.51475
1.65909
1.81187
1.97361
2.14509
2.32796
2.52724
2.76121
3.10156
3.84254
6.33373
0
0
0
0
0
0
0
0
0
0
0
0.652105
0.740671
0.833918
0.933742
1.04024
1.15355
1.27382
1.40127
1.53614
1.67873
1.82942
1.98874
2.15748
2.33741
2.53382
2.76569
3.10606
3.84945
6.32013
0
0
0
0
0
0
0
0
0
0
0.592796
0.677646
0.76644
0.859946
0.959777
1.06601
1.17876
1.29817
1.42443
1.55776
1.69848
1.84696
2.00372
2.1696
2.34647
2.5399
2.76961
3.10993
3.85546
6.30455
0
0
0
0
0
0
0
0
0
0
0.618355
0.704252
0.793148
0.886834
0.986586
1.09246
1.20455
1.32298
1.44793
1.57962
1.71835
1.86448
2.01854
2.18142
2.3551
2.54545
2.77293
3.11313
3.86047
6.28688
0
0
0
0
0
0
0
0
0
0
0.645071
0.73198
0.820835
0.914615
1.01419
1.11961
1.23093
1.34827
1.47179
1.60171
1.7383
1.88193
2.03316
2.1929
2.36326
2.55044
2.7756
3.1156
3.8644
6.26699
0
0
0
0
0
0
0
0
0
0.591794
0.673007
0.760887
0.849541
0.943323
1.04263
1.14747
1.2579
1.37403
1.496
1.624
1.75831
1.89931
2.04756
2.20402
2.37092
2.55481
2.77758
3.11727
3.86717
6.24474
0
0
0
0
0
0
0
0
0
0.619923
0.702232
0.790949
0.87931
0.972991
1.07191
1.17607
1.28549
1.40027
1.52054
1.64648
1.77837
1.91659
2.0617
2.21473
2.37804
2.55853
2.77883
3.11809
3.86867
6.22001
0
0
0
0
0
0
0
0
0
0.649456
0.732819
0.821769
0.910184
1.00365
1.10207
1.20541
1.31369
1.42698
1.54541
1.66915
1.79846
1.93373
2.07555
2.22499
2.38457
2.56154
2.77928
3.11798
3.86882
6.19264
0
0
0
0
0
0
0
0
0.603214
0.68048
0.764843
0.853854
0.942208
1.03534
1.13313
1.23551
1.34251
1.45416
1.57059
1.69196
1.81854
1.95071
2.08907
2.23476
2.39048
2.56381
2.77888
3.11689
3.8675
6.16249
0
0
0
0
0
0
0
0
0.634759
0.713086
0.798389
0.88726
0.975426
1.06809
1.1651
1.26639
1.37194
1.4818
1.59607
1.71491
1.83858
1.96747
2.10221
2.244
2.3957
2.56527
2.77758
3.11472
3.86461
6.12941
0
0
0
0
0
0
0
0.597338
0.668047
0.747371
0.833542
0.922043
1.00988
1.10193
1.19801
1.29804
1.40199
1.50988
1.62182
1.73796
1.85855
1.98398
2.11493
2.25266
2.40019
2.56588
2.77531
3.11141
3.86003
6.09325
0
0
0
0
0
0
0
0.631573
0.703192
0.783439
0.870397
0.958262
1.04562
1.13689
1.23187
1.33047
1.43263
1.53839
1.64781
1.76106
1.87839
2.0002
2.12717
2.26067
2.40389
2.56558
2.77202
3.10687
3.85364
6.05385
0
0
0
0
0
0
0.606986
0.667877
0.740319
0.821403
0.909051
0.995971
1.08267
1.17298
1.26669
1.36366
1.46386
1.56729
1.67401
1.78419
1.89806
2.01606
2.13889
2.26799
2.40675
2.56431
2.76763
3.10102
3.84533
6.01105
0
0
0
0
0
0.59953
0.645072
0.706399
0.779563
0.861381
0.949606
1.03522
1.12107
1.21023
1.30246
1.39762
1.49564
1.59654
1.70036
1.80727
1.91751
2.03151
2.15002
2.27456
2.40871
2.56201
2.76208
3.09377
3.83497
5.9647
0
0
0
0
0.616746
0.640583
0.685677
0.747303
0.821069
0.903501
0.992171
1.07607
1.16085
1.24864
1.33918
1.4323
1.52794
1.62609
1.72681
1.83025
1.93665
2.04647
2.16049
2.28031
2.40971
2.55862
2.75531
3.08505
3.82244
5.91463
0
0.770304
0.704382
0.668536
0.662844
0.684572
0.729
0.790764
0.864993
0.947895
1.03685
1.11854
1.20203
1.28821
1.37681
1.46766
1.56069
1.65588
1.75328
1.85305
1.95543
2.06088
2.17023
2.28516
2.40967
2.55408
2.74725
3.07475
3.8076
5.8607
0.948442
0.844257
0.766858
0.723056
0.712502
0.731744
0.775259
0.836974
0.911498
0.994701
1.08369
1.16267
1.24459
1.32891
1.41532
1.50365
1.59383
1.68582
1.77969
1.87558
1.97374
2.07464
2.17916
2.28906
2.40855
2.54833
2.73783
3.06281
3.79035
5.80275
1.04583
0.925195
0.834884
0.78212
0.766042
0.782373
0.82469
0.886139
0.96076
1.04406
1.13107
1.20846
1.28852
1.37068
1.45463
1.54018
1.62725
1.71581
1.80593
1.89773
1.99149
2.08768
2.18719
2.29193
2.40627
2.5413
2.72699
3.04913
3.77055
5.74066
1.15307
1.01386
0.909021
0.846164
0.823819
0.83676
0.877551
0.938478
1.01296
1.09611
1.18043
1.25589
1.33376
1.41345
1.49463
1.57712
1.66083
1.74573
1.83187
1.91939
2.00856
2.09987
2.19425
2.29369
2.40278
2.53296
2.71467
3.03365
3.7481
5.67428
1.27129
1.11111
0.989903
0.91568
0.886227
0.895232
0.93412
0.99422
1.06827
1.15098
1.23173
1.30489
1.38022
1.4571
1.5352
1.61433
1.6944
1.7754
1.85735
1.94041
2.02483
2.11111
2.20023
2.29427
2.39801
2.52324
2.70085
3.0163
3.7229
5.60352
1.40184
1.21792
1.07825
0.991214
0.953702
0.958149
0.994691
1.0536
1.12687
1.20878
1.28491
1.35534
1.42772
1.50143
1.57611
1.65159
1.72777
1.80463
1.8822
1.96062
2.04014
2.12128
2.20504
2.29359
2.39191
2.51213
2.68546
2.99702
3.69484
5.52825
1.54628
1.33542
1.17489
1.07338
1.02672
1.02589
1.05956
1.11683
1.1889
1.26955
1.3398
1.40703
1.47604
1.54618
1.61711
1.68864
1.76067
1.83318
1.90619
1.97982
2.05434
2.13024
2.20857
2.29159
2.38445
2.49958
2.6685
2.97579
3.66388
5.4484
1.70653
1.46496
1.28076
1.16286
1.1058
1.09885
1.12903
1.18412
1.25444
1.33329
1.39612
1.45964
1.52482
1.591
1.65783
1.72512
1.79277
1.86074
1.92905
1.99779
2.06722
2.13784
2.21072
2.28819
2.37558
2.48559
2.64998
2.95259
3.62995
5.36392
1.88485
1.60809
1.39691
1.26038
1.19145
1.1774
1.20333
1.25555
1.32347
1.39719
1.45342
1.51267
1.57355
1.63538
1.69779
1.7606
1.82367
1.88695
1.95045
2.01425
2.07856
2.14391
2.21136
2.28333
2.36529
2.4702
2.62993
2.92747
3.59306
5.27477
2.08442
1.76686
1.52461
1.36675
1.28419
1.26183
1.28257
1.33107
1.39572
1.45968
1.51098
1.56541
1.62154
1.67864
1.73636
1.79447
1.85282
1.91134
1.97
2.02885
2.08809
2.14822
2.21034
2.27691
2.35356
2.45342
2.60843
2.90051
3.55326
5.18095
2.30822
1.94316
1.66499
1.48259
1.38436
1.35228
1.36667
1.41038
1.47071
1.52204
1.56775
1.61684
1.6678
1.7199
1.77272
1.82601
1.87959
1.93334
1.9872
2.04119
2.09549
2.15055
2.2075
2.26887
2.34038
2.43533
2.58561
2.87186
3.51071
5.08265
2.5641
2.14106
1.81991
1.6086
1.49199
1.44831
1.45483
1.49232
1.54697
1.58268
1.62217
1.66546
1.71096
1.75785
1.80568
1.85414
1.903
1.9521
2.00131
2.05063
2.10019
2.15044
2.20252
2.25898
2.32566
2.41595
2.56161
2.84175
3.46564
4.97986
2.85137
2.36011
1.98875
1.74405
1.60629
1.54907
1.54605
1.57574
1.61393
1.63915
1.67209
1.7094
1.74938
1.79112
1.83409
1.87789
1.92225
1.96693
2.01178
2.05673
2.10188
2.14769
2.19527
2.24724
2.30951
2.39552
2.53677
2.81069
3.41874
4.87392
3.20624
2.61498
2.17545
1.88814
1.72426
1.65028
1.6351
1.65466
1.67049
1.68798
1.71418
1.7455
1.7801
1.81693
1.85533
1.89483
1.93508
1.97577
2.01671
2.05778
2.09907
2.14099
2.18468
2.2328
2.29132
2.3737
2.51109
2.77895
3.3704
4.76398
3.57189
2.87654
2.36582
2.03387
1.84253
1.75046
1.72167
1.71973
1.71406
1.72508
1.74571
1.77217
1.80242
1.83527
1.86998
1.90597
1.94282
1.9802
2.01786
2.05567
2.09368
2.13231
2.17272
2.21759
2.27296
2.35229
2.48629
2.74844
3.32361
4.6583
4.208
3.226
2.5679
2.16466
1.93579
1.82039
1.77388
1.75009
1.7378
1.74324
1.75923
1.78176
1.80859
1.83839
1.8703
1.90369
1.93807
1.97307
2.00841
2.04392
2.07966
2.11604
2.15425
2.19704
2.25051
2.32811
2.46009
2.71761
3.27612
4.54533
4.49177
3.43875
2.73004
2.28406
2.02543
1.88573
1.79901
1.75626
1.74459
1.75078
1.76728
1.79002
1.81675
1.84616
1.8774
1.90988
1.94315
1.97684
2.01069
2.04457
2.07852
2.113
2.14921
2.18994
2.24132
2.31672
2.44596
2.69858
3.24428
4.47184
6.38285
3.7481
2.6906
2.18989
1.93012
1.79959
1.74109
1.72023
1.71903
1.72979
1.74802
1.77098
1.79709
1.82538
1.85524
1.88616
1.91779
1.9498
1.98197
2.01419
2.04659
2.07967
2.11477
2.15482
2.20614
2.28216
2.41213
2.66244
3.19068
4.3444
6.17373
3.77006
2.72129
2.21338
1.95223
1.81913
1.7542
1.72714
1.72302
1.73232
1.74937
1.77111
1.79591
1.8228
1.85118
1.88057
1.91062
1.94104
1.97164
2.00235
2.03334
2.06519
2.09931
2.13874
2.1899
2.26628
2.39705
2.64767
3.17097
4.29103
5.00248
3.89202
3.05251
2.49243
2.1534
1.96342
1.86642
1.8246
1.81397
1.81962
1.83206
1.84719
1.86501
1.8855
1.9082
1.93263
1.95831
1.98487
2.012
2.03953
2.06752
2.09644
2.12757
2.16381
2.2114
2.28364
2.40953
2.65478
3.1734
4.28519
4.9596
3.90144
3.12046
2.58773
2.25074
2.05237
1.94518
1.89431
1.87519
1.86873
1.87049
1.8791
1.89242
1.90911
1.9283
1.94934
1.97174
1.99509
2.01909
2.04355
2.06853
2.09451
2.12278
2.15625
2.20118
2.27095
2.39473
2.63843
3.15486
4.24968
4.73752
3.86354
3.16753
2.66396
2.32929
2.12304
2.00595
1.94638
1.92164
1.91691
1.91981
1.9246
1.93421
1.94732
1.96302
1.98068
1.99979
2.01993
2.04078
2.06217
2.08413
2.10712
2.13243
2.16295
2.20499
2.27204
2.39354
2.63598
3.15267
4.24228
4.65255
3.84468
3.19146
2.70859
2.38039
2.17322
2.05226
1.9882
1.95925
1.95085
1.95016
1.95303
1.96076
1.97187
1.98545
2.0009
2.01771
2.03552
2.05399
2.07298
2.09253
2.11311
2.13601
2.1642
2.20404
2.26919
2.38945
2.63198
3.15034
4.23506
4.5787
3.82191
3.20188
2.7359
2.41418
2.20782
2.08505
2.0183
1.98658
1.97553
1.97482
1.97651
1.98288
1.99246
2.00439
2.01805
2.033
2.04887
2.06536
2.08233
2.09982
2.11835
2.13922
2.16546
2.20352
2.26726
2.38687
2.63024
3.15125
4.23331
4.53055
3.80589
3.20822
2.75411
2.43741
2.2323
2.10887
2.04067
2.00724
1.99443
1.99227
1.99335
1.99886
2.00738
2.01807
2.03038
2.04386
2.05818
2.07307
2.08838
2.10421
2.12108
2.14034
2.16506
2.20183
2.26471
2.38427
2.62892
3.15278
4.23268
4.49335
3.79304
3.21211
2.76672
2.45368
2.24961
2.12595
2.05692
2.02243
2.00845
2.00524
2.006
2.01095
2.01869
2.02843
2.03964
2.05193
2.06497
2.07853
2.09248
2.10693
2.12244
2.14041
2.16397
2.19982
2.26223
2.38187
2.62688
3.15498
4.23309
4.46494
3.78348
3.21536
2.77633
2.46571
2.26223
2.13835
2.06878
2.03362
2.01888
2.01458
2.01524
2.01985
2.02704
2.03605
2.0464
2.05772
2.06972
2.08217
2.095
2.10833
2.12274
2.13969
2.16238
2.19762
2.25987
2.37843
2.62616
3.15819
4.23376
4.44215
3.77622
3.21843
2.78419
2.47502
2.27165
2.14743
2.0774
2.04177
2.02653
2.02128
2.02198
2.02641
2.03322
2.04169
2.05135
2.06189
2.07302
2.08457
2.09647
2.10888
2.12241
2.13856
2.16061
2.19546
2.25616
2.37598
2.62641
3.16208
4.23457
4.42348
3.77076
3.22158
2.79105
2.48263
2.27894
2.15418
2.08368
2.04765
2.03143
2.02597
2.02678
2.03115
2.03771
2.04578
2.05492
2.06482
2.07526
2.08607
2.09721
2.10886
2.12169
2.13723
2.1588
2.19228
2.25312
2.37431
2.62736
3.1664
4.2354
4.40782
3.76664
3.22489
2.79734
2.48916
2.28479
2.15929
2.08813
2.05095
2.03434
2.02914
2.0301
2.03448
2.04091
2.04869
2.05742
2.06683
2.07671
2.08691
2.09743
2.10849
2.12075
2.13581
2.15623
2.18924
2.25069
2.37325
2.62885
3.17099
4.23624
4.39442
3.76353
3.22834
2.80328
2.495
2.28966
2.1621
2.08975
2.05256
2.03612
2.03115
2.03228
2.03672
2.04308
2.05066
2.05909
2.06812
2.07755
2.08728
2.0973
2.10787
2.11969
2.13378
2.15345
2.18666
2.24875
2.37266
2.63074
3.17578
4.23709
4.38277
3.76118
3.23192
2.809
2.50038
2.29218
2.16367
2.09077
2.05343
2.03707
2.03227
2.03357
2.0381
2.04444
2.0519
2.06012
2.06885
2.07793
2.08728
2.0969
2.10709
2.11806
2.13133
2.15101
2.18448
2.24721
2.37245
2.63294
3.1807
4.23797
4.37248
3.7594
3.23557
2.81457
2.50429
2.29464
2.16499
2.0914
2.05376
2.03738
2.03272
2.03417
2.0388
2.04516
2.05255
2.06061
2.06913
2.07795
2.08699
2.09631
2.10575
2.11598
2.12915
2.14887
2.1826
2.24599
2.37255
2.63539
3.18572
4.23889
4.36329
3.75806
3.23927
2.82002
2.50816
2.29711
2.16618
2.09175
2.0537
2.03724
2.03264
2.03423
2.03896
2.04536
2.05272
2.06069
2.06905
2.07766
2.08648
2.09519
2.10398
2.11405
2.12717
2.14696
2.18099
2.24503
2.3729
2.63805
3.19081
4.23986
4.35496
3.75704
3.24298
2.82534
2.51214
2.29962
2.1673
2.09192
2.05337
2.03674
2.03217
2.03386
2.03869
2.04515
2.05251
2.06042
2.06867
2.07714
2.08556
2.09367
2.1023
2.11227
2.12536
2.14526
2.17958
2.24428
2.37345
2.64087
3.19595
4.24087
4.34734
3.75627
3.24667
2.83008
2.51622
2.30217
2.1684
2.09198
2.05285
2.03598
2.0314
2.03316
2.03808
2.04461
2.05199
2.05987
2.06805
2.07641
2.08421
2.09217
2.10069
2.11059
2.12368
2.1437
2.17835
2.2437
2.37417
2.64382
3.20112
4.24193
4.3403
3.75567
3.25032
2.83486
2.52037
2.30478
2.1695
2.09198
2.0522
2.03504
2.03039
2.0322
2.0372
2.0438
2.05121
2.05909
2.06722
2.07519
2.08284
2.0907
2.09913
2.109
2.12212
2.14228
2.17725
2.24327
2.37503
2.64689
3.2063
4.24302
4.33373
3.75521
3.25391
2.83966
2.52458
2.30745
2.17062
2.09195
2.05146
2.03396
2.0292
2.03104
2.03611
2.04277
2.05023
2.05812
2.06624
2.07388
2.08145
2.08924
2.09762
2.10747
2.12065
2.14096
2.17626
2.24296
2.376
2.65004
3.21149
4.24415
4.32756
3.75484
3.25744
2.84446
2.52882
2.31018
2.17178
2.09191
2.05067
2.03278
2.02789
2.02972
2.03485
2.04158
2.04908
2.057
2.06511
2.07253
2.08004
2.08778
2.09614
2.10601
2.11925
2.13973
2.17537
2.24274
2.37707
2.65327
3.21667
4.2453
4.32172
3.75453
3.26088
2.84924
2.53308
2.31295
2.17298
2.09188
2.04986
2.03154
2.02647
2.02828
2.03346
2.04024
2.0478
2.05575
2.06375
2.07113
2.07862
2.08634
2.09469
2.10458
2.1179
2.13855
2.17455
2.24261
2.37823
2.65656
3.22183
4.24647
4.31616
3.75426
3.26424
2.85397
2.53736
2.31577
2.17423
2.09188
2.04902
2.03025
2.02499
2.02675
2.03196
2.0388
2.04642
2.0544
2.06232
2.0697
2.07718
2.08489
2.09326
2.10319
2.1166
2.13744
2.17379
2.24254
2.37946
2.65989
3.22697
4.24764
4.31083
3.75402
3.2675
2.85865
2.54163
2.31862
2.17552
2.09191
2.0482
2.02894
2.02346
2.02516
2.03039
2.03728
2.04495
2.05298
2.06086
2.06824
2.07572
2.08345
2.09184
2.10182
2.11534
2.13637
2.17309
2.24253
2.38075
2.66327
3.23207
4.24881
4.3057
3.75378
3.27066
2.86327
2.5459
2.32152
2.17686
2.09197
2.04739
2.02762
2.02189
2.02352
2.02876
2.03569
2.04341
2.05149
2.05936
2.06676
2.07426
2.08201
2.09043
2.10048
2.11411
2.13534
2.17243
2.24258
2.38208
2.66667
3.23714
4.24997
4.30075
3.75354
3.27373
2.86781
2.55014
2.32444
2.17825
2.09208
2.04659
2.02629
2.02031
2.02185
2.02708
2.03406
2.04182
2.04995
2.05783
2.06526
2.07278
2.08056
2.08904
2.09915
2.1129
2.13434
2.17181
2.24266
2.38346
2.67009
3.24215
4.25111
4.29594
3.75328
3.2767
2.87227
2.55437
2.32739
2.17969
2.09223
2.04583
2.02498
2.01872
2.02015
2.02538
2.03238
2.0402
2.04837
2.05628
2.06374
2.0713
2.07912
2.08765
2.09784
2.11172
2.13337
2.17122
2.24279
2.38488
2.67353
3.24712
4.25223
4.29127
3.753
3.27957
2.87666
2.55856
2.33036
2.18117
2.09242
2.0451
2.02369
2.01713
2.01845
2.02365
2.03068
2.03854
2.04676
2.05471
2.06221
2.06981
2.07768
2.08626
2.09654
2.11054
2.13242
2.17066
2.24294
2.38633
2.67698
3.25202
4.25333
4.2867
3.75271
3.28234
2.88095
2.56272
2.33335
2.18269
2.09265
2.04441
2.02241
2.01555
2.01673
2.02191
2.02897
2.03687
2.04514
2.05313
2.06068
2.06832
2.07624
2.08489
2.09525
2.10939
2.13149
2.17012
2.24312
2.38781
2.68043
3.25688
4.25439
4.28224
3.75238
3.28502
2.88516
2.56685
2.33635
2.18425
2.09293
2.04375
2.02116
2.01398
2.01503
2.02017
2.02724
2.03518
2.0435
2.05155
2.05914
2.06683
2.0748
2.08352
2.09397
2.10825
2.13057
2.1696
2.24333
2.38932
2.68388
3.26167
4.25542
4.27787
3.75203
3.2876
2.88929
2.57093
2.33935
2.18585
2.09325
2.04313
2.01994
2.01243
2.01333
2.01843
2.02551
2.03349
2.04185
2.04996
2.05759
2.06534
2.07337
2.08215
2.09271
2.10712
2.12967
2.1691
2.24356
2.39084
2.68733
3.26639
4.25642
4.27358
3.75165
3.29009
2.89332
2.57497
2.34237
2.18748
2.09362
2.04254
2.01874
2.01089
2.01163
2.01669
2.02378
2.03179
2.04019
2.04837
2.05605
2.06385
2.07194
2.0808
2.09144
2.106
2.12878
2.16862
2.24381
2.39238
2.69077
3.27105
4.25738
4.26937
3.75124
3.29249
2.89727
2.57897
2.34539
2.18915
2.09403
2.042
2.01758
2.00938
2.00996
2.01496
2.02205
2.03009
2.03853
2.04678
2.05451
2.06236
2.07051
2.07944
2.09019
2.10489
2.1279
2.16815
2.24408
2.39393
2.69421
3.27565
4.2583
4.26522
3.7508
3.2948
2.90114
2.58292
2.34841
2.19084
2.09448
2.0415
2.01645
2.00789
2.0083
2.01324
2.02033
2.0284
2.03688
2.04519
2.05297
2.06088
2.06909
2.0781
2.08894
2.10379
2.12704
2.16769
2.24436
2.3955
2.69763
3.28018
4.25917
4.26113
3.75033
3.29703
2.90491
2.58682
2.35142
2.19257
2.09497
2.04103
2.01535
2.00643
2.00666
2.01154
2.01862
2.02671
2.03523
2.0436
2.05144
2.0594
2.06768
2.07676
2.0877
2.1027
2.12618
2.16725
2.24466
2.39709
2.70104
3.28463
4.26
4.2571
3.74983
3.29918
2.9086
2.59067
2.35443
2.19432
2.0955
2.04061
2.01429
2.00499
2.00504
2.00984
2.01692
2.02503
2.03359
2.04203
2.04991
2.05793
2.06627
2.07542
2.08647
2.10161
2.12534
2.16682
2.24497
2.39868
2.70443
3.28903
4.2608
4.25313
3.7493
3.30125
2.91221
2.59448
2.35744
2.19609
2.09606
2.04022
2.01326
2.00358
2.00343
2.00816
2.01523
2.02336
2.03195
2.04045
2.04839
2.05646
2.06486
2.0741
2.08524
2.10053
2.1245
2.1664
2.2453
2.40028
2.70781
3.29335
4.26154
4.24921
3.74873
3.30324
2.91574
2.59824
2.36044
2.19789
2.09667
2.03987
2.01226
2.00219
2.00185
2.0065
2.01356
2.0217
2.03033
2.03889
2.04688
2.05501
2.06347
2.07278
2.08402
2.09946
2.12367
2.16599
2.24564
2.40189
2.71117
3.29761
4.26224
4.24533
3.74815
3.30516
2.91919
2.60194
2.36343
2.19971
2.0973
2.03956
2.01129
2.00084
2.00029
2.00486
2.01189
2.02006
2.02871
2.03734
2.04538
2.05356
2.06208
2.07146
2.08281
2.0984
2.12285
2.16559
2.24598
2.40351
2.71452
3.3018
4.26291
4.2415
3.74753
3.30701
2.92256
2.6056
2.36641
2.20154
2.09797
2.03928
2.01036
1.99951
1.99875
2.00323
2.01025
2.01842
2.0271
2.03579
2.04388
2.05211
2.0607
2.07016
2.08161
2.09735
2.12203
2.1652
2.24635
2.40513
2.71784
3.30593
4.26352
4.23771
3.7469
3.30879
2.92585
2.6092
2.36938
2.2034
2.09867
2.03904
2.00946
1.9982
1.99724
2.00162
2.00861
2.0168
2.02551
2.03426
2.04239
2.05068
2.05932
2.06886
2.08041
2.0963
2.12123
2.16482
2.24672
2.40676
2.72115
3.30999
4.2641
4.23396
3.74623
3.31051
2.92907
2.61276
2.37233
2.20526
2.09941
2.03884
2.00859
1.99693
1.99574
2.00003
2.007
2.01519
2.02393
2.03273
2.04091
2.04925
2.05796
2.06757
2.07922
2.09526
2.12043
2.16445
2.2471
2.4084
2.72443
3.31398
4.26463
4.23025
3.74554
3.31216
2.93222
2.61627
2.37527
2.20715
2.10017
2.03866
2.00775
1.99568
1.99427
1.99846
2.0054
2.0136
2.02236
2.03122
2.03944
2.04783
2.0566
2.06628
2.07803
2.09422
2.11964
2.16408
2.24749
2.41004
2.7277
3.3179
4.26513
4.22659
3.74483
3.31375
2.9353
2.61973
2.37819
2.20904
2.10096
2.03853
2.00695
1.99446
1.99282
1.99691
2.00381
2.01202
2.0208
2.02971
2.03798
2.04642
2.05525
2.065
2.07685
2.09319
2.11886
2.16373
2.2479
2.41168
2.73095
3.32177
4.26558
4.22296
3.7441
3.31528
2.93831
2.62314
2.3811
2.21095
2.10177
2.03842
2.00617
1.99326
1.9914
1.99537
2.00224
2.01045
2.01925
2.02821
2.03653
2.04502
2.05391
2.06373
2.07568
2.09217
2.11809
2.16339
2.24831
2.41333
2.73417
3.32557
4.26599
4.21936
3.74335
3.31676
2.94125
2.62651
2.38399
2.21286
2.10262
2.03834
2.00543
1.99209
1.98999
1.99386
2.00069
2.00889
2.01772
2.02673
2.03509
2.04363
2.05257
2.06247
2.07452
2.09116
2.11732
2.16305
2.24873
2.41498
2.73737
3.32931
4.26636
4.2158
3.74258
3.31818
2.94413
2.62982
2.38686
2.21479
2.10349
2.03829
2.00471
1.99095
1.9886
1.99236
1.99914
2.00735
2.01619
2.02526
2.03366
2.04225
2.05124
2.06121
2.07336
2.09015
2.11656
2.16273
2.24916
2.41664
2.74056
3.33299
4.2667
4.21227
3.74179
3.31955
2.94694
2.63309
2.38972
2.21672
2.10438
2.03828
2.00403
1.98983
1.98724
1.99088
1.99762
2.00583
2.01469
2.0238
2.03224
2.04087
2.04992
2.05996
2.07221
2.08915
2.11581
2.16241
2.2496
2.41829
2.74372
3.33661
4.26699
4.20877
3.74098
3.32087
2.94969
2.63632
2.39256
2.21866
2.10529
2.03829
2.00337
1.98873
1.9859
1.98941
1.99611
2.00431
2.01319
2.02235
2.03083
2.0395
2.04861
2.05872
2.07107
2.08816
2.11507
2.1621
2.25005
2.41995
2.74685
3.34017
4.26725
4.20531
3.74016
3.32213
2.95233
2.63949
2.39537
2.22061
2.10622
2.03833
2.00274
1.98766
1.98458
1.98797
1.99462
2.00281
2.0117
2.02089
2.02942
2.03814
2.04731
2.05749
2.06993
2.08717
2.11433
2.1618
2.25051
2.42161
2.74997
3.34367
4.26748
4.20188
3.73931
3.32335
2.95491
2.64262
2.39817
2.22256
2.10718
2.03839
2.00213
1.98662
1.98328
1.98654
1.99314
2.00133
2.01023
2.01944
2.02803
2.0368
2.04601
2.05626
2.0688
2.08619
2.1136
2.16151
2.25098
2.42328
2.75307
3.34711
4.26766
4.19848
3.73846
3.32453
2.95744
2.64571
2.40095
2.22451
2.10815
2.03849
2.00155
1.9856
1.982
1.98513
1.99168
1.99986
2.00877
2.01801
2.02665
2.03546
2.04472
2.05504
2.06768
2.08522
2.11288
2.16123
2.25146
2.42494
2.75614
3.3505
4.26782
4.19511
3.73759
3.32566
2.95991
2.64876
2.40371
2.22647
2.10915
2.03861
2.001
1.9846
1.98074
1.98374
1.99023
1.99839
2.00732
2.01658
2.02527
2.03412
2.04344
2.05383
2.06656
2.08425
2.11217
2.16096
2.25194
2.42661
2.75919
3.35383
4.26794
4.19177
3.73671
3.32675
2.96233
2.65175
2.40644
2.22844
2.11016
2.03875
2.00048
1.98362
1.9795
1.98236
1.98879
1.99695
2.00588
2.01516
2.02391
2.0328
2.04217
2.05262
2.06545
2.08329
2.11146
2.16069
2.25243
2.42828
2.76222
3.35711
4.26802
4.18845
3.73581
3.3278
2.9647
2.65471
2.40916
2.2304
2.11119
2.03892
1.99998
1.98267
1.97827
1.981
1.98737
1.99551
2.00445
2.01376
2.02255
2.03148
2.0409
2.05142
2.06435
2.08234
2.11076
2.16044
2.25293
2.42995
2.76522
3.36033
4.26808
4.18517
3.73491
3.32881
2.96702
2.65763
2.41186
2.23236
2.11224
2.03911
1.9995
1.98174
1.97707
1.97965
1.98597
1.99409
2.00304
2.01236
2.0212
2.03018
2.03964
2.05023
2.06325
2.08139
2.11007
2.16019
2.25344
2.43162
2.76821
3.3635
4.2681
4.18191
3.73399
3.32977
2.96929
2.6605
2.41453
2.23433
2.1133
2.03932
1.99905
1.98083
1.97589
1.97832
1.98458
1.99268
2.00164
2.01098
2.01986
2.02888
2.03839
2.04904
2.06216
2.08045
2.10939
2.15995
2.25396
2.43329
2.77117
3.36662
4.26809
4.17868
3.73306
3.33071
2.97151
2.66333
2.41719
2.23629
2.11438
2.03956
1.99862
1.97995
1.97472
1.97701
1.9832
1.99128
2.00024
2.0096
2.01853
2.02758
2.03715
2.04787
2.06108
2.07952
2.10871
2.15972
2.25449
2.43496
2.77411
3.36968
4.26805
4.17547
3.73212
3.3316
2.97369
2.66612
2.41982
2.23826
2.11547
2.03981
1.99821
1.97908
1.97358
1.97571
1.98183
1.9899
1.99886
2.00823
2.01721
2.0263
2.03592
2.0467
2.06
2.07859
2.10804
2.1595
2.25502
2.43663
2.77703
3.3727
4.26798
4.1723
3.73117
3.33246
2.97582
2.66888
2.42243
2.24022
2.11657
2.04009
1.99783
1.97824
1.97245
1.97443
1.98048
1.98852
1.99749
2.00688
2.0159
2.02503
2.03469
2.04553
2.05893
2.07767
2.10738
2.15929
2.25556
2.4383
2.77992
3.37567
4.26788
4.16914
3.73022
3.33329
2.97791
2.67159
2.42502
2.24218
2.11769
2.04039
1.99747
1.97741
1.97134
1.97317
1.97914
1.98716
1.99613
2.00553
2.0146
2.02376
2.03347
2.04437
2.05787
2.07676
2.10673
2.15908
2.25611
2.43997
2.7828
3.37859
4.26776
4.16601
3.72925
3.33409
2.97996
2.67427
2.42759
2.24414
2.11882
2.04071
1.99713
1.97661
1.97025
1.97191
1.97781
1.98581
1.99478
2.0042
2.0133
2.0225
2.03225
2.04322
2.05681
2.07586
2.10608
2.15889
2.25667
2.44164
2.78565
3.38146
4.26761
4.16291
3.72827
3.33485
2.98196
2.6769
2.43013
2.24609
2.11996
2.04105
1.99681
1.97583
1.96917
1.97068
1.9765
1.98447
1.99344
2.00287
2.01201
2.02125
2.03104
2.04208
2.05576
2.07496
2.10544
2.1587
2.25723
2.44331
2.78849
3.38428
4.26742
4.15983
3.72729
3.33559
2.98393
2.67951
2.43266
2.24805
2.12111
2.0414
1.99652
1.97506
1.96811
1.96946
1.9752
1.98314
1.9921
2.00155
2.01073
2.02
2.02984
2.04094
2.05471
2.07407
2.10481
2.15852
2.2578
2.44498
2.79129
3.38706
4.26722
4.15677
3.7263
3.33629
2.98585
2.68207
2.43517
2.25
2.12227
2.04178
1.99624
1.97432
1.96707
1.96825
1.97391
1.98182
1.99078
2.00024
2.00946
2.01876
2.02865
2.03981
2.05368
2.07318
2.10419
2.15835
2.25838
2.44665
2.79408
3.38979
4.26699
4.15374
3.72531
3.33697
2.98774
2.6846
2.43765
2.25194
2.12345
2.04217
1.99598
1.9736
1.96605
1.96705
1.97264
1.98051
1.98947
1.99894
2.0082
2.01753
2.02746
2.03868
2.05264
2.0723
2.10357
2.15819
2.25897
2.44832
2.79685
3.39248
4.26673
4.15073
3.72431
3.33762
2.98959
2.68709
2.44011
2.25388
2.12463
2.04258
1.99575
1.97289
1.96504
1.96587
1.97137
1.97921
1.98817
1.99765
2.00694
2.01631
2.02628
2.03756
2.05162
2.07143
2.10297
2.15803
2.25956
2.44998
2.79959
3.39513
4.26645
4.14775
3.7233
3.33824
2.9914
2.68955
2.44255
2.25582
2.12582
2.04301
1.99553
1.9722
1.96405
1.96471
1.97012
1.97792
1.98688
1.99637
2.00569
2.01509
2.02511
2.03645
2.0506
2.07057
2.10236
2.15788
2.26016
2.45165
2.80232
3.39773
4.26615
4.14478
3.72228
3.33883
2.99318
2.69198
2.44497
2.25775
2.12702
2.04345
1.99533
1.97153
1.96307
1.96356
1.96888
1.97665
1.98559
1.99509
2.00445
2.01388
2.02394
2.03534
2.04958
2.06971
2.10177
2.15775
2.26077
2.45331
2.80502
3.40029
4.26582
4.14184
3.72126
3.3394
2.99492
2.69437
2.44737
2.25967
2.12822
2.0439
1.99515
1.97088
1.96211
1.96242
1.96765
1.97538
1.98432
1.99383
2.00322
2.01268
2.02278
2.03424
2.04858
2.06885
2.10118
2.15762
2.26138
2.45497
2.8077
3.4028
4.26546
4.13892
3.72024
3.33995
2.99662
2.69672
2.44975
2.2616
2.12944
2.04438
1.99499
1.97024
1.96117
1.96129
1.96643
1.97413
1.98305
1.99257
2.00199
2.01148
2.02162
2.03314
2.04758
2.06801
2.1006
2.1575
2.262
2.45663
2.81036
3.40528
4.26509
4.13601
3.71921
3.34047
2.9983
2.69905
2.45211
2.26351
2.13066
2.04486
1.99484
1.96963
1.96024
1.96018
1.96523
1.97288
1.9818
1.99132
2.00077
2.01029
2.02048
2.03206
2.04658
2.06717
2.10003
2.15738
2.26263
2.45829
2.813
3.40771
4.2647
4.13314
3.71818
3.34097
2.99994
2.70135
2.45445
2.26542
2.13188
2.04536
1.99471
1.96903
1.95933
1.95908
1.96403
1.97164
1.98055
1.99008
1.99956
2.00911
2.01934
2.03097
2.04559
2.06634
2.09947
2.15728
2.26326
2.45994
2.81562
3.41011
4.26428
4.13028
3.71714
3.34144
3.00155
2.70361
2.45676
2.26732
2.13311
2.04588
1.9946
1.96844
1.95843
1.958
1.96285
1.97041
1.97931
1.98884
1.99836
2.00793
2.0182
2.0299
2.04461
2.06551
2.09891
2.15718
2.2639
2.4616
2.81821
3.41246
4.26384
4.12744
3.71609
3.3419
3.00313
2.70584
2.45906
2.26922
2.13435
2.04641
1.99451
1.96788
1.95754
1.95692
1.96167
1.9692
1.97808
1.98762
1.99716
2.00676
2.01707
2.02883
2.04363
2.06469
2.09836
2.15709
2.26454
2.46325
2.82079
3.41478
4.26339
4.12462
3.71505
3.34233
3.00467
2.70804
2.46133
2.2711
2.13559
2.04695
1.99443