/*--------------------------------*- C++ -*----------------------------------*\
  =========                 |
  \\      /  F ield         | OpenFOAM: The Open Source CFD Toolbox
   \\    /   O peration     | Website:  https://openfoam.org
    \\  /    A nd           | Version:  8
     \\/     M anipulation  |
\*---------------------------------------------------------------------------*/
FoamFile
{
    version     2.0;
    format      ascii;
    class       volScalarField;
    location    "1.1";
    object      Q1;
}
// * * * * * * * * * * * * * * * * * * * * * * * * * * * * * * * * * * * * * //

dimensions      [0 0 -1 0 0 0 0];

internalField   nonuniform List<scalar> 
6300
(
0.203054
0.898688
1.66964
2.54134
3.57828
4.83032
6.34333
8.15272
10.2826
12.7489
15.563
18.7339
22.269
26.1749
30.4575
35.122
40.1734
45.6163
51.4553
57.6948
64.3391
71.3923
78.8584
86.7416
95.0496
103.818
113.249
124.507
144.183
220.136
0.492636
1.32531
2.17498
3.12871
4.24937
5.59647
7.21703
9.14152
11.3876
13.9659
16.8839
20.1477
23.7623
27.7323
32.0618
36.7543
41.813
47.2409
53.0411
59.2161
65.7686
72.7007
80.0142
87.7111
95.7968
104.307
113.453
124.429
143.955
219.5
0.593946
1.43242
2.36498
3.43529
4.66479
6.10217
7.8003
9.79791
12.1197
14.7797
17.7854
21.1409
24.8487
28.9108
33.3286
38.103
43.2346
48.7241
54.5718
60.7782
67.3441
74.27
81.5574
89.2085
97.2313
105.666
114.73
125.608
144.951
220.423
0.754366
1.5874
2.56173
3.70244
5.01821
6.5424
8.31867
10.3873
12.7769
15.5038
18.5757
21.9958
25.7656
29.8855
34.3555
39.175
44.3426
49.8556
55.7009
61.8718
68.3848
75.2443
82.4509
90.0047
97.9097
106.204
115.119
125.881
145.288
220.687
0.935457
1.77485
2.77176
3.95006
5.31654
6.89722
8.729
10.8487
13.2843
16.0521
19.1601
22.6115
26.4076
30.5487
35.0344
39.8639
45.0361
50.5491
56.3705
62.5049
68.9794
75.7948
82.9513
90.4492
98.2935
106.525
115.38
126.111
145.632
221.025
1.13107
1.98684
3.00698
4.21686
5.62593
7.25736
9.14267
11.3145
13.7983
16.6095
19.7559
23.2403
27.064
31.227
35.7287
40.5681
45.7439
51.2544
57.0258
63.1272
69.5623
76.332
83.4368
90.8778
98.6613
106.831
115.631
126.343
145.992
221.358
1.34271
2.22048
3.26646
4.50655
5.95379
7.63145
9.56771
11.7911
14.3241
17.1803
20.3666
23.8856
27.7381
31.9239
36.4423
41.2919
46.4712
51.9326
57.6745
63.742
70.1365
76.8594
83.912
91.2963
99.0201
107.13
115.879
126.579
146.36
221.675
1.57187
2.47384
3.54718
4.81724
6.30022
8.02085
10.0055
12.2793
14.8614
17.7632
20.9902
24.5444
28.4263
32.6355
37.1708
42.0309
47.2137
52.6107
58.3243
64.3566
70.7094
77.3849
84.3848
91.7123
99.3768
107.428
116.127
126.819
146.733
221.977
1.81989
2.74655
3.8478
5.14778
6.66523
8.42675
10.4579
12.7809
15.4117
18.3593
21.6275
25.2175
29.1294
33.3623
37.9149
42.7856
47.9177
53.2922
58.9763
64.9722
71.2826
77.9098
84.8567
92.1273
99.7326
107.725
116.376
127.063
147.108
222.261
2.08812
3.03912
4.16804
5.49774
7.0489
8.85003
10.9263
13.2975
15.9767
18.9702
22.2799
25.9062
29.8485
34.1055
38.6756
43.557
48.627
53.9776
59.6308
65.5893
71.8562
78.4345
85.3278
92.5411
100.087
108.022
116.625
127.309
147.483
222.528
2.37791
3.35238
4.50819
5.86709
7.4514
9.2913
11.4117
13.8305
16.5578
19.5971
22.9486
26.6115
30.5844
34.8658
39.4536
44.3098
49.3421
54.6674
60.2884
66.2084
72.4307
78.9592
85.7982
92.9537
100.44
108.316
116.872
127.554
147.856
222.776
2.69065
3.68736
4.86888
6.25618
7.87306
9.75114
11.9151
14.3809
17.1559
20.2411
23.6346
27.3343
31.3382
35.644
40.2497
45.0513
50.0638
55.3622
60.9496
66.8297
73.0064
79.4841
86.2678
93.3647
100.79
108.607
117.117
127.797
148.226
223.006
3.02781
4.04522
5.25093
6.66556
8.31435
10.2302
12.4373
14.9498
17.7723
20.9033
24.3389
28.0756
32.1105
36.441
41.0643
45.8016
50.7925
56.0623
61.6147
67.4536
73.5833
80.0089
86.7363
93.7735
101.138
108.895
117.356
128.036
148.591
223.216
3.39094
4.4272
5.6553
7.09597
8.77591
10.729
12.979
15.538
18.4079
21.5847
25.0625
28.8362
32.9023
37.2574
41.8624
46.561
51.5285
56.7682
62.284
68.08
74.1614
80.5336
87.2034
94.1795
101.481
109.177
117.59
128.271
148.95
223.406
3.78169
4.83461
6.08306
7.54825
9.25846
11.2484
13.5411
16.1464
19.0637
22.2863
25.8062
29.6171
33.7144
38.094
42.6498
47.3302
52.2724
57.4802
62.9575
68.7092
74.7406
81.0579
87.6684
94.5821
101.819
109.453
117.817
128.5
149.302
223.574
4.2018
5.26887
6.53534
8.02334
9.76282
11.7892
14.1244
16.776
19.7406
23.009
26.5712
30.4192
34.5476
38.9518
43.4494
48.1094
53.0245
58.1984
63.6355
69.341
75.3207
81.5814
88.131
94.9805
102.152
109.721
118.037
128.722
149.647
223.72
4.65313
5.73148
7.01338
8.52228
10.2899
12.3521
14.7297
17.4276
20.4396
23.7538
27.3582
31.2435
35.4029
39.8314
44.2616
48.8992
53.785
58.923
64.318
69.9753
75.9015
82.1037
88.5906
95.374
102.477
109.982
118.248
128.937
149.983
223.842
5.13767
6.22402
7.51848
9.04617
10.8407
12.9382
15.358
18.1022
21.1617
24.5218
28.1684
32.0908
36.2813
40.7121
45.087
49.6999
54.5543
59.6543
65.005
70.6122
76.4827
82.6244
89.0466
95.7619
102.796
110.233
118.448
129.142
150.308
223.939
5.6575
6.74819
8.05205
9.5962
11.4162
13.5485
16.0102
18.8008
21.9078
25.3139
29.0028
32.9623
37.1836
41.5712
45.9259
50.5118
55.3325
60.3923
65.6965
71.2514
77.0641
83.1431
89.4984
96.1434
103.105
110.474
118.638
129.338
150.623
224.009
6.21485
7.30578
8.61557
10.1737
12.0176
14.1839
16.6875
19.5245
22.6791
26.1312
29.8624
33.8589
38.1108
42.4467
46.7788
51.3353
56.1199
61.1371
66.3925
71.8927
77.6453
83.6592
89.9452
96.5177
103.405
110.704
118.817
129.523
150.925
224.05
6.81209
7.8987
9.21062
10.7799
12.6462
14.8457
17.3909
20.2743
23.4766
26.9748
30.7483
34.7817
39.064
43.3392
47.6461
52.1706
56.9166
61.8887
67.0928
72.5358
78.2259
84.1723
90.3865
96.8839
103.695
110.922
118.982
129.696
151.213
224.061
7.45172
8.52898
9.83888
11.4164
13.3032
15.535
18.1215
21.0514
24.3015
27.8459
31.6616
35.7319
40.0444
44.2492
48.5281
53.0181
57.7228
62.6472
67.7974
73.1807
78.8055
84.6818
90.8216
97.2413
103.974
111.127
119.134
129.857
151.487
224.04
8.13643
9.19879
10.5022
12.0846
13.99
16.2532
18.8807
21.857
25.1551
28.7456
32.6037
36.7106
41.053
45.1772
49.4254
53.8779
58.5386
63.4125
68.5061
73.8268
79.3836
85.187
91.2496
97.589
104.241
111.317
119.271
130.003
151.744
223.984
8.86905
9.91043
11.2024
12.7864
14.7081
17.0016
19.6698
22.6925
26.0386
29.6754
33.5757
37.7191
42.0911
46.1237
50.3382
54.7504
59.3641
64.1847
69.2186
74.4739
79.9598
85.6874
91.6699
97.9261
104.494
111.493
119.392
130.134
151.983
223.892
9.65261
10.6664
11.9416
13.5233
15.4591
17.7818
20.4902
23.5593
26.9534
30.6365
34.579
38.7587
43.1001
47.0892
51.2669
55.6356
60.1993
64.9635
69.9348
75.1216
80.5336
86.1822
92.0816
98.2516
104.733
111.652
119.496
130.248
152.202
223.761
10.4903
11.4692
12.722
14.2974
16.2448
18.5953
21.3434
24.4588
27.901
31.6305
35.615
39.8309
44.1187
48.0742
52.2119
56.5339
61.0444
65.7489
70.6544
75.7695
81.1043
86.6708
92.4838
98.5646
104.957
111.794
119.582
130.345
152.4
223.588
11.3857
12.3218
13.546
15.1106
17.0669
19.4439
22.2312
25.3926
28.8829
32.6588
36.6854
40.937
45.1609
49.0793
53.1735
57.4454
61.8993
66.5408
71.3771
76.4172
81.6714
87.1524
92.8758
98.8641
105.164
111.917
119.649
130.422
152.575
223.371
12.3423
13.2272
14.4159
15.9652
17.9274
20.3294
23.1552
26.3626
29.9009
33.7232
37.7916
42.0788
46.2272
50.105
54.1519
58.3702
62.7639
67.3389
72.1025
77.064
82.2342
87.6262
93.2565
99.149
105.354
112.02
119.695
130.479
152.725
223.107
13.3642
14.1884
15.3347
16.8634
18.8285
21.2537
24.1173
27.3704
30.9568
34.8253
38.9354
43.2579
47.3184
51.1516
55.1476
59.3084
63.6382
68.1429
72.8303
77.7095
82.792
88.0914
93.6249
99.4183
105.525
112.103
119.719
130.513
152.847
222.793
14.4554
15.2091
16.305
17.8078
19.7724
22.219
25.1195
28.4181
32.0524
35.9671
40.1188
44.4761
48.4352
52.2196
56.1606
60.26
64.5221
68.9527
73.5599
78.3531
83.3441
88.5471
93.9801
99.6707
105.676
112.163
119.72
130.524
152.939
222.425
15.6207
16.293
17.3301
18.8011
20.7615
23.2276
26.1641
29.5077
33.1899
37.1507
41.3436
45.7353
49.5782
53.3095
57.1913
61.2251
65.4153
69.7679
74.2908
78.994
83.8896
88.9922
94.321
99.9051
105.806
112.199
119.696
130.508
153
222.001
16.8648
17.4439
18.4133
19.8462
21.7984
24.2818
27.2534
30.6417
34.3715
38.3782
42.6121
47.0377
50.748
54.4217
58.2397
62.2037
66.3177
70.5879
75.0225
79.6315
84.4275
89.4258
94.6463
100.12
105.913
112.211
119.645
130.465
153.025
221.516
18.1929
18.6662
19.5582
20.9463
22.886
25.3844
28.3899
31.8223
35.5996
39.6519
43.9265
48.3854
51.9453
55.5564
59.306
63.1955
67.2289
71.4124
75.7542
80.2649
84.9571
89.8468
94.9549
100.315
105.996
112.196
119.566
130.393
153.014
220.967
19.6107
19.9645
20.7687
22.1046
24.0274
26.5382
29.5764
33.0524
36.8769
40.9746
45.2893
49.7636
53.1705
56.714
60.3902
64.2004
68.1484
72.2406
76.4853
80.8931
85.4771
90.2539
95.2455
100.487
106.054
112.152
119.458
130.289
152.962
220.351
21.1244
21.3439
22.049
23.3249
25.2259
27.7463
30.8158
34.3349
38.2061
42.3488
46.7032
51.0854
54.4242
57.8945
61.4922
65.218
69.0758
73.0719
77.2147
81.5151
85.9865
90.646
95.5168
100.636
106.084
112.079
119.318
130.151
152.868
219.662
22.7404
22.8097
23.4037
24.6112
26.485
29.0122
32.1114
35.6728
39.5904
43.7777
48.1712
52.442
55.7067
59.0982
62.6117
66.2478
70.0103
73.9054
77.9416
82.1299
86.484
91.0218
95.7673
100.761
106.086
111.975
119.144
129.977
152.727
218.897
24.466
24.3679
24.8377
25.9677
27.8087
30.3394
33.4669
37.0698
41.0332
45.2646
49.6964
53.8341
57.0182
60.3247
63.7483
67.2892
70.9511
74.7401
78.6647
82.7361
86.9683
91.3797
95.9956
100.858
106.058
111.837
118.936
129.764
152.537
218.051
26.3089
26.0249
26.3564
27.3993
29.2014
31.7321
34.886
38.5295
42.5381
46.8131
51.2823
55.262
58.3588
61.5739
64.9014
68.3415
71.8972
75.5749
79.3828
83.3324
87.438
91.7183
96.2
100.928
105.999
111.665
118.69
129.511
152.295
217.119
28.2778
27.7876
27.9658
28.911
30.6676
33.1948
36.3732
40.0562
44.1095
48.4271
52.9327
56.7261
59.7281
62.8451
66.0703
69.4033
72.8473
76.4082
80.0944
83.9172
87.8913
92.036
96.3791
100.968
105.906
111.457
118.406
129.215
151.996
216.098
30.3818
29.6638
29.6723
30.5086
32.2127
34.7323
37.9331
41.6547
45.7516
50.111
54.6517
58.2261
61.1259
64.1374
67.2536
70.4735
73.7999
77.2385
80.7977
84.4888
88.3267
92.3311
96.5312
100.977
105.778
111.21
118.081
128.874
151.638
214.982
32.6312
31.6618
31.483
32.1983
33.8423
36.3501
39.5712
43.3299
47.4697
51.8696
56.4438
59.7618
62.551
65.4497
68.4499
71.5502
74.753
78.0639
81.4909
85.0454
88.7422
92.6018
96.6545
100.954
105.613
110.924
117.713
128.484
151.216
213.765
35.0375
33.7911
33.4059
33.9871
35.5629
38.0544
41.2933
45.0879
49.2693
53.7084
58.314
61.3319
64.002
66.78
69.6571
72.6312
75.7045
78.882
82.1717
85.5847
89.1361
92.8464
96.7475
100.896
105.411
110.597
117.301
128.044
150.728
212.445
37.6131
36.0619
35.4497
35.8828
37.3817
39.852
43.1063
46.9352
51.1567
55.6331
60.2677
62.935
65.4768
68.1259
70.8725
73.7139
76.6517
79.6904
82.8378
86.1047
89.506
93.063
96.8085
100.802
105.169
110.227
116.843
127.551
150.17
211.015
40.3721
38.4858
37.6243
37.894
39.3068
41.7508
45.0176
48.879
53.139
57.6504
62.2974
64.5682
66.9724
69.4842
72.0929
74.795
77.5913
80.486
83.4863
86.6027
89.8501
93.2498
96.8358
100.671
104.887
109.814
116.337
127.003
149.537
209.47
43.3304
41.0759
39.9407
40.0308
41.3475
43.7597
47.0361
50.928
55.2241
59.7675
64.1082
66.228
68.4847
70.8508
73.3141
75.8704
78.5196
81.2654
84.1143
87.0763
90.1659
93.4049
96.8282
100.501
104.564
109.356
115.783
126.399
148.828
207.807
46.5061
43.8471
42.4116
42.3043
43.5144
45.889
49.1718
53.0916
57.421
61.9923
65.9517
67.9091
70.0084
72.2202
74.5309
76.9353
79.4323
82.0247
84.7184
87.5226
90.4515
93.5267
96.7844
100.293
104.199
108.854
115.18
125.736
148.039
206.02
49.9197
46.8162
45.0516
44.7278
45.8198
48.1506
51.4362
55.3809
59.7396
64.3335
67.8209
69.6041
71.5362
73.5855
75.737
77.9839
80.3242
82.7596
85.295
87.9388
90.7045
93.6138
96.7036
100.045
103.792
108.306
114.527
125.014
147.167
204.105
53.5955
50.0033
47.8777
47.3165
48.2783
50.5587
53.8428
57.8084
62.1911
66.7999
69.7062
71.3035
73.0589
74.9382
76.9245
79.0094
81.1896
83.4653
85.8403
88.322
90.9232
93.6651
96.5856
99.7587
103.343
107.715
113.825
124.231
146.209
202.06
57.5619
53.4317
50.91
50.0888
50.9071
53.1298
56.4074
60.3884
64.7873
69.4007
71.5937
72.9943
74.5646
76.2676
78.084
80.0038
82.0216
84.1364
86.3503
88.6696
91.1058
93.6801
96.4307
99.4343
102.856
107.082
113.076
123.389
145.166
199.88
61.8541
57.1299
54.1726
53.0662
53.7267
55.8834
59.1481
63.1363
67.5404
72.1435
73.4654
74.6597
76.0382
77.5605
79.2045
80.9578
82.8131
84.7673
86.821
88.9789
91.2514
93.6589
96.2403
99.0746
102.333
106.41
112.282
122.49
144.036
197.563
66.5137
61.1326
57.6957
56.2763
56.7628
58.8437
62.0864
66.0701
70.463
74.6007
75.2958
76.2774
77.4605
78.8004
80.2722
81.8603
83.5553
85.3517
87.2481
89.2475
91.3591
93.6024
96.0166
98.683
101.778
105.705
111.45
121.537
142.82
195.109
71.6013
65.4852
61.5158
59.7506
60.0439
62.0356
65.2425
69.2031
73.56
76.6008
77.0547
77.8213
78.8092
79.9693
81.2725
82.7001
84.2398
85.8837
87.6281
89.4743
91.4299
93.5134
95.7642
98.2657
101.199
104.975
110.586
120.537
141.524
192.517
77.1756
70.2432
65.6835
63.5359
63.6134
65.4985
68.6487
72.5578
76.842
78.4779
78.6935
79.2507
80.0511
81.0399
82.1836
83.46
84.8536
86.3538
87.9549
89.6558
91.4629
93.3936
95.4875
97.8294
100.604
104.231
109.703
119.502
140.155
189.793
83.3928
75.4958
70.254
67.6681
67.4936
69.2403
72.2961
76.1054
80.2594
80.1878
80.1766
80.5377
81.1645
81.9962
82.9945
84.133
85.3932
86.7618
88.2307
89.7973
91.466
93.2536
95.1993
97.3896
100.013
103.493
108.823
118.453
138.732
186.945
90.2623
81.3285
75.3348
72.2602
71.7944
73.3612
76.2684
79.9091
82.3993
81.5899
81.3897
81.589
82.0735
82.7763
83.6544
84.678
85.8254
87.0814
88.4358
89.8843
91.4302
93.0892
94.9006
96.952
99.4345
102.775
107.964
117.411
137.279
184.011
98.5026
87.9818
80.9502
77.2241
76.3545
77.634
80.2724
83.6111
83.738
82.7442
82.3932
82.4651
82.8378
83.4388
84.2208
85.1509
86.2053
87.3666
88.6234
89.9698
91.4082
92.9536
94.6455
96.5725
98.9281
102.141
107.194
116.449
135.859
180.994
107.238
95.5067
87.5042
83.0955
81.7428
82.6254
84.8578
86.214
84.17
83.1524
82.7778
82.8254
83.1713
83.7413
84.4875
85.3762
86.3833
87.4909
88.6871
89.9658
91.3286
92.7906
94.3913
96.2205
98.4731
101.578
106.508
115.574
134.518
178.121
121.331
104.631
94.0771
88.2463
85.9423
86.011
87.3778
86.781
84.8258
83.8331
83.4642
83.505
83.8337
84.3774
85.0888
85.9349
86.8917
87.9417
89.0726
90.2781
91.56
92.9333
94.4388
96.1681
98.3189
101.321
106.135
115.004
133.411
175.141
131.452
115.444
103.933
96.7108
92.9837
91.1721
87.5174
84.675
83.239
82.663
82.6075
82.8865
83.398
84.0824
84.9021
85.8308
86.8492
87.9432
89.1029
90.3234
91.6077
92.9715
94.4559
96.1526
98.2586
101.2
105.924
114.63
132.654
173.343
172.273
125.037
104.268
93.8486
88.5758
86.3046
85.541
85.174
84.8437
84.7108
84.8145
85.117
85.58
86.1752
86.8808
87.6791
88.5556
89.4986
90.4997
91.5549
92.6678
93.8552
95.1599
96.6759
98.6028
101.364
105.88
114.24
131.423
169.659
208.42
139.748
109.821
96.5818
90.5106
87.6129
85.7862
84.4428
83.6925
83.4286
83.5019
83.813
84.3029
84.9352
85.6847
86.5326
87.4638
88.4669
89.5344
90.6635
91.8596
93.1422
94.5575
96.2046
98.2892
101.242
105.984
114.566
131.783
169.253
181.379
142.794
117.759
102.45
93.9004
89.6322
87.9671
87.7972
88.3943
89.229
89.8304
90.0926
90.2951
90.5875
91.0003
91.5289
92.1606
92.8819
93.6816
94.5531
95.4972
96.5286
97.6884
99.0688
100.867
103.5
107.869
115.99
132.648
169.348
188.167
151.702
126.193
109.966
100.355
95.1486
92.74
91.9892
91.976
91.5642
91.0795
90.859
90.8692
91.0661
91.4169
91.8966
92.4849
93.1655
93.926
94.759
95.6649
96.6579
97.7779
99.1161
100.868
103.447
107.753
115.798
132.324
168.496
183.26
152.117
128.949
113.185
103.234
97.4522
94.487
93.3048
93.1783
93.6263
93.8327
93.5148
93.4092
93.4886
93.7203
94.0791
94.5453
95.1024
95.7378
96.4435
97.2193
98.0781
99.0588
100.251
101.849
104.267
108.407
116.287
132.652
168.471
182.18
153.665
131.727
116.289
106.189
100.072
96.7334
95.2052
94.7784
94.9799
94.9405
94.6192
94.5188
94.5894
94.799
95.1247
95.5484
96.0553
96.6335
97.2757
97.9819
98.765
99.6636
100.767
102.271
104.592
108.636
116.44
132.753
168.331
180.624
153.972
133.114
118.1
108.04
101.772
98.2101
96.4483
95.8036
95.8101
95.9626
95.6709
95.581
95.6452
95.8347
96.1288
96.5113
96.9687
97.4901
98.0686
98.7046
99.4111
100.227
101.243
102.654
104.884
108.848
116.601
132.901
168.328
179.62
154.227
134.136
119.455
109.463
103.121
99.4185
97.4956
96.691
96.5461
96.6077
96.3628
96.2995
96.373
96.5574
96.8346
97.1902
97.612
98.0902
98.6187
99.1983
99.8428
100.592
101.536
102.876
105.039
108.952
116.664
132.958
168.33
178.783
154.316
134.803
120.39
110.473
104.099
100.311
98.279
97.3601
97.1027
97.0848
96.8882
96.8544
96.9412
97.1251
97.3903
97.7243
98.1161
98.557
99.042
99.5724
100.163
100.854
101.739
103.02
105.132
108.971
116.496
132.971
168.359
178.13
154.374
135.301
121.09
111.232
104.84
100.994
98.886
97.8845
97.5429
97.4094
97.2605
97.258
97.3615
97.5494
97.8077
98.1255
98.4933
98.9035
99.3519
99.8408
100.386
101.029
101.866
103.102
105.178
108.763
116.407
133.037
168.396
177.594
154.409
135.684
121.625
111.807
105.4
101.511
99.347
98.2849
97.8806
97.6319
97.5272
97.5553
97.6767
97.8711
98.126
98.4318
98.7803
99.165
99.5827
100.037
100.544
101.147
101.945
103.147
104.972
108.617
116.37
133.137
168.441
177.15
154.44
135.997
122.054
112.259
105.832
101.906
99.6985
98.5905
98.0475
97.777
97.7119
97.769
97.9087
98.1113
98.3655
98.6629
98.9963
99.3603
99.7526
100.178
100.653
101.225
101.992
103.004
104.806
108.515
116.369
133.259
168.49
176.774
154.472
136.264
122.411
112.623
106.171
102.21
99.9507
98.6928
98.0961
97.8661
97.8356
97.9193
98.0767
98.2885
98.5441
98.8359
99.1579
99.5053
99.8771
100.279
100.729
101.275
101.901
102.84
104.678
108.445
116.395
133.395
168.542
176.45
154.507
136.501
122.717
112.926
106.442
102.284
99.911
98.6766
98.1112
97.9139
97.9131
98.0205
98.1947
98.4161
98.6745
98.9631
99.2766
99.6112
99.9665
100.349
100.779
101.216
101.749
102.706
104.577
108.4
116.438
133.54
168.596
176.167
154.544
136.716
122.989
113.185
106.427
102.244
99.8685
98.6464
98.103
97.9317
97.9557
98.084
98.2735
98.5045
98.7667
99.054
99.3615
99.6863
100.029
100.396
100.737
101.081
101.622
102.596
104.497
108.373
116.496
133.691
168.651
175.916
154.583
136.916
123.235
113.253
106.43
102.216
99.8268
98.6078
98.0789
97.9273
97.9718
98.1182
98.3217
98.5618
98.8285
99.1158
99.4193
99.7369
100.07
100.362
100.621
100.966
101.515
102.505
104.435
108.361
116.564
133.846
168.709
175.691
154.624
137.102
123.461
113.321
106.451
102.198
99.7877
98.5647
98.0438
97.9069
97.968
98.1298
98.3457
98.5945
98.8659
99.1542
99.4555
99.7679
100.041
100.263
100.519
100.867
101.423
102.429
104.386
108.36
116.641
134.005
168.768
175.485
154.665
137.278
123.668
113.406
106.486
102.189
99.7525
98.5196
98.0015
97.8748
97.9491
98.1239
98.3508
98.6076
98.8838
99.1738
99.474
99.7515
99.9577
100.175
100.43
100.78
101.344
102.364
104.348
108.368
116.724
134.167
168.827
175.296
154.706
137.446
123.8
113.505
106.533
102.189
99.7215
98.4743
97.9546
97.8344
97.9189
98.1045
98.3409
98.605
98.8861
99.1783
99.4784
99.6815
99.8823
100.097
100.351
100.704
101.275
102.31
104.319
108.384
116.813
134.33
168.888
175.12
154.747
137.606
123.939
113.615
106.59
102.197
99.695
98.4296
97.9048
97.788
97.8802
98.0747
98.3193
98.59
98.8757
99.1704
99.4233
99.6164
99.8133
100.025
100.28
100.636
101.215
102.263
104.297
108.407
116.907
134.494
168.949
174.955
154.786
137.76
124.085
113.733
106.655
102.212
99.6729
98.3864
97.8536
97.7375
97.8352
98.0369
98.2886
98.5652
98.8552
99.1527
99.3659
99.5551
99.7493
99.9602
100.216
100.575
101.161
102.223
104.281
108.434
117.004
134.659
169.01
174.799
154.825
137.907
124.235
113.857
106.728
102.233
99.655
98.345
97.8018
97.6842
97.7855
97.9929
98.2507
98.5326
98.8267
99.1262
99.3104
99.4969
99.6893
99.8997
100.156
100.52
101.113
102.188
104.27
108.466
117.105
134.824
169.071
174.65
154.862
138.049
124.388
113.986
106.806
102.259
99.641
98.3057
97.7501
97.6292
97.7325
97.9444
98.2072
98.4939
98.7918
99.0742
99.2562
99.441
99.6325
99.8431
100.102
100.469
101.069
102.157
104.264
108.502
117.208
134.989
169.131
174.507
154.897
138.185
124.543
114.119
106.889
102.29
99.6307
98.2685
97.6989
97.5732
97.6772
97.8925
98.1595
98.4503
98.7517
99.0223
99.2031
99.387
99.5783
99.7896
100.05
100.421
101.029
102.13
104.261
108.541
117.314
135.153
169.191
174.37
154.93
138.316
124.698
114.254
106.976
102.325
99.6238
98.2336
97.6485
97.5167
97.6202
97.838
98.1086
98.403
98.7076
98.9705
99.1508
99.3345
99.5261
99.7386
100.001
100.377
100.992
102.107
104.26
108.583
117.421
135.317
169.251
174.237
154.961
138.443
124.853
114.39
107.066
102.364
99.6201
98.2009
97.5993
97.4602
97.5623
97.7817
98.0552
98.3528
98.6604
98.9188
99.0991
99.2832
99.4756
99.6896
99.9551
100.335
100.958
102.085
104.263
108.627
117.529
135.48
169.309
174.108
154.991
138.566
125.007
114.528
107.159
102.406
99.6193
98.1703
97.5512
97.4039
97.5038
97.7241
98
98.3004
98.6107
98.867
99.0479
99.2328
99.4264
99.6422
99.9106
100.295
100.925
102.066
104.267
108.673
117.639
135.642
169.366
173.982
155.018
138.684
125.16
114.667
107.254
102.451
99.6212
98.1418
97.5044
97.3482
97.4451
97.6658
97.9436
98.2464
98.5592
98.8152
98.9971
99.1832
99.3783
99.5962
99.8677
100.257
100.895
102.049
104.273
108.721
117.749
135.803
169.422
173.858
155.043
138.799
125.311
114.805
107.35
102.498
99.6256
98.1153
97.459
97.2931
97.3864
97.6069
97.8863
98.1912
98.5062
98.7635
98.9467
99.1342
99.3311
99.5513
99.826
100.22
100.866
102.033
104.281
108.77
117.86
135.962
169.477
173.738
155.067
138.909
125.46
114.943
107.448
102.547
99.6323
98.0908
97.415
97.2388
97.328
97.5479
97.8284
98.1352
98.4522
98.7118
98.8966
99.0858
99.2846
99.5073
99.7853
100.184
100.838
102.018
104.29
108.82
117.971
136.119
169.53
173.619
155.088
139.016
125.607
115.081
107.547
102.599
99.6411
98.0681
97.3724
97.1854
97.27
97.4889
97.7702
98.0786
98.3975
98.6602
98.8467
99.0378
99.2388
99.4641
99.7455
100.149
100.811
102.005
104.3
108.871
118.082
136.274
169.582
173.502
155.108
139.12
125.752
115.218
107.647
102.652
99.6519
98.0472
97.3311
97.1329
97.2125
97.4301
97.7119
98.0217
98.3424
98.6087
98.7971
98.9902
99.1935
99.4214
99.7065
100.115
100.785
101.992
104.311
108.923
118.193
136.428
169.632
173.387
155.125
139.22
125.894
115.354
107.747
102.707
99.6646
98.028
97.2912
97.0814
97.1556
97.3715
97.6536
97.9646
98.2869
98.5573
98.7478
98.943
99.1486
99.3794
99.668
100.082
100.759
101.98
104.323
108.976
118.304
136.58
169.68
173.273
155.141
139.318
126.034
115.488
107.848
102.763
99.679
98.0105
97.2526
97.0309
97.0994
97.3134
97.5956
97.9076
98.2313
98.5061
98.6987
98.8961
99.1041
99.3378
99.6301
100.049
100.734
101.969
104.336
109.029
118.415
136.73
169.727
173.161
155.156
139.412
126.171
115.622
107.949
102.82
99.695
97.9945
97.2154
96.9814
97.0439
97.2557
97.5378
97.8507
98.1758
98.4552
98.6499
98.8496
99.06
99.2966
99.5926
100.017
100.71
101.958
104.349
109.083
118.526
136.878
169.773
173.05
155.168
139.503
126.305
115.754
108.05
102.878
99.7125
97.98
97.1794
96.9328
96.9891
97.1986
97.4803
97.794
98.1203
98.4044
98.6013
98.8033
99.0163
99.2557
99.5555
99.9852
100.686
101.948
104.363
109.137
118.636
137.024
169.817
172.941
155.179
139.592
126.437
115.885
108.152
102.938
99.7315
97.967
97.1447
96.8853
96.9351
97.142
97.4233
97.7376
98.065
98.3539
98.5529
98.7572
98.9728
99.2152
99.5187
99.9536
100.663
101.939
104.377
109.191
118.746
137.168
169.859
172.832
155.189
139.678
126.567
116.014
108.253
102.998
99.7517
97.9554
97.1112
96.8388
96.8819
97.086
97.3667
97.6815
98.01
98.3036
98.5049
98.7115
98.9296
99.175
99.4822
99.9224
100.64
101.929
104.392
109.246
118.856
137.31
169.899
172.725
155.197
139.761
126.693
116.142
108.353
103.059
99.7733
97.9451
97.0789
96.7933
96.8295
97.0306
97.3106
97.6259
97.9553
98.2536
98.457
98.666
98.8867
99.135
99.446
99.8915
100.617
101.921
104.407
109.301
118.965
137.45
169.938
172.618
155.204
139.842
126.818
116.268
108.454
103.121
99.796
97.9361
97.0478
96.7487
96.7778
96.9759
97.2551
97.5706
97.9009
98.2038
98.4095
98.6208
98.844
99.0953
99.4101
99.8608
100.595
101.912
104.423
109.356
119.073
137.588
169.976
172.513
155.209
139.921
126.94
116.392
108.554
103.183
99.8198
97.9283
97.0178
96.7051
96.7269
96.9218
97.2
97.5158
97.8469
98.1544
98.3622
98.5758
98.8015
99.0558
99.3744
99.8304
100.573
101.904
104.438
109.412
119.181
137.724
170.012
172.409
155.213
139.997
127.059
116.516
108.654
103.246
99.8447
97.9217
96.989
96.6625
96.6768
96.8683
97.1455
97.4614
97.7933
98.1052
98.3152
98.5311
98.7593
99.0166
99.3388
99.8002
100.551
101.896
104.455
109.467
119.288
137.858
170.046
172.305
155.216
140.071
127.176
116.637
108.753
103.309
99.8706
97.9163
96.9612
96.6207
96.6275
96.8154
97.0915
97.4075
97.7401
98.0563
98.2685
98.4866
98.7173
98.9775
99.3035
99.7702
100.529
101.888
104.471
109.523
119.394
137.99
170.079
172.202
155.218
140.143
127.291
116.757
108.852
103.373
99.8974
97.912
96.9345
96.5799
96.5789
96.7632
97.038
97.354
97.6873
98.0078
98.222
98.4424
98.6756
98.9387
99.2684
99.7403
100.508
101.881
104.488
109.579
119.5
138.12
170.111
172.1
155.218
140.213
127.404
116.876
108.95
103.437
99.9251
97.9088
96.9088
96.54
96.5311
96.7117
96.9851
97.3011
97.6349
97.9595
98.1758
98.3984
98.634
98.9
99.2334
99.7107
100.486
101.873
104.505
109.635
119.605
138.248
170.141
171.999
155.218
140.281
127.514
116.993
109.048
103.502
99.9537
97.9066
96.8841
96.501
96.484
96.6607
96.9327
97.2486
97.583
97.9116
98.1299
98.3546
98.5927
98.8615
99.1987
99.6812
100.465
101.866
104.522
109.691
119.71
138.375
170.17
171.899
155.216
140.347
127.623
117.108
109.145
103.567
99.9831
97.9054
96.8604
96.4628
96.4377
96.6104
96.8809
97.1966
97.5315
97.8639
98.0842
98.3111
98.5516
98.8233
99.1641
99.6519
100.444
101.86
104.54
109.747
119.813
138.499
170.197
171.799
155.214
140.412
127.729
117.222
109.242
103.632
100.013
97.9052
96.8377
96.4255
96.392
96.5607
96.8296
97.145
97.4804
97.8166
98.0388
98.2679
98.5107
98.7852
99.1296
99.6227
100.423
101.853
104.558
109.803
119.916
138.621
170.224
171.701
155.21
140.474
127.833
117.334
109.338
103.697
100.044
97.9059
96.8159
96.389
96.3471
96.5116
96.7788
97.094
97.4297
97.7696
97.9937
98.2248
98.47
98.7472
99.0954
99.5938
100.403
101.847
104.576
109.859
120.019
138.742
170.248
171.603
155.206
140.535
127.935
117.445
109.433
103.762
100.076
97.9075
96.795
96.3534
96.3029
96.4631
96.7286
97.0434
97.3795
97.7229
97.9489
98.182
98.4295
98.7095
99.0613
99.565
100.383
101.841
104.594
109.915
120.12
138.861
170.272
171.505
155.2
140.594
128.029
117.555
109.528
103.828
100.108
97.9101
96.7751
96.3185
96.2594
96.4152
96.6789
96.9932
97.3297
97.6748
97.9043
98.1395
98.3892
98.672
99.0273
99.5363
100.362
101.835
104.612
109.971
120.221
138.978
170.294
171.409
155.194
140.651
128.121
117.663
109.622
103.893
100.141
97.9135
96.756
96.2844
96.2166
96.3678
96.6296
96.9435
97.2803
97.626
97.86
98.0971
98.3491
98.6346
98.9936
99.5078
100.342
101.829
104.631
110.027
120.321
139.094
170.316
171.313
155.188
140.707
128.211
117.769
109.715
103.959
100.174
97.9177
96.7378
96.2512
96.1744
96.321
96.5809
96.8943
97.2313
97.5777
97.816
98.055
98.3092
98.5974
98.9599
99.4795
100.323
101.824
104.65
110.083
120.421
139.207
170.336
171.217
155.18
140.762
128.299
117.875
109.808
104.025
100.208
97.9227
96.7204
96.2186
96.1328
96.2748
96.5326
96.8455
97.1827
97.5298
97.7722
98.0131
98.2695
98.5603
98.9265
99.4513
100.303
101.819
104.669
110.139
120.52
139.319
170.355
171.123
155.172
140.815
128.386
117.978
109.9
104.091
100.243
97.9285
96.7038
96.1869
96.092
96.2292
96.4849
96.7971
97.1345
97.4822
97.7287
97.9715
98.23
98.5235
98.8932
99.4232
100.283
101.814
104.688
110.195
120.618
139.43
170.372
171.029
155.163
140.867
128.471
118.081
109.991
104.157
100.278
97.9351
96.688
96.1558
96.0517
96.1841
96.4376
96.7492
97.0867
97.4349
97.6854
97.93
98.1907
98.4868
98.86
99.3954
100.264
101.809
104.707
110.251
120.715
139.538
170.389
170.936
155.153
140.917
128.555
118.182
110.082
104.222
100.314
97.9424
96.673
96.1255
96.0121
96.1395
96.3908
96.7016
97.0393
97.3881
97.6424
97.8888
98.1516
98.4503
98.827
99.3677
100.245
101.804
104.727
110.307
120.812
139.645
170.405
170.843
155.143
140.966
128.637
118.282
110.172
104.288
100.35
97.9505
96.6588
96.0959
95.9731
96.0954
96.3444
96.6545
96.9922
97.3416
97.5996
97.8478
98.1127
98.4139
98.7942
99.3401
100.226
101.8
104.747
110.363
120.908
139.751
170.419
170.751
155.132
141.013
128.718
118.38
110.261
104.354
100.386
97.9592
96.6454
96.067
95.9347
96.0519
96.2985
96.6078
96.9456
97.2954
97.5571
97.8071
98.0739
98.3778
98.7615
99.3128
100.207
101.796
104.767
110.419
121.003
139.855
170.433
170.66
155.121
141.06
128.798
118.477
110.35
104.42
100.423
97.9686
96.6327
96.0388
95.8969
96.0089
96.2531
96.5615
96.8993
97.2496
97.5148
97.7665
98.0354
98.3418
98.729
99.2855
100.189
101.792
104.787
110.474
121.098
139.957
170.445
170.569
155.109
141.105
128.877
118.573
110.438
104.485
100.461
97.9787
96.6207
96.0113
95.8597
95.9664
96.208
96.5156
96.8533
97.2041
97.4727
97.7262
97.997
98.3059
98.6967
99.2585
100.17
101.788
104.808
110.53
121.191
140.058
170.457
170.479
155.096
141.149
128.954
118.668
110.525
104.551
100.498
97.9894
96.6094
95.9844
95.8231
95.9244
96.1635
96.4701
96.8077
97.1589
97.4309
97.686
97.9589
98.2703
98.6645
99.2316
100.152
101.785
104.828
110.586
121.285
140.158
170.468
170.389
155.083
141.192
129.029
118.762
110.611
104.616
100.536
98.0007
96.5988
95.9582
95.7871
95.8829
96.1193
96.4249
96.7625
97.1141
97.3894
97.6461
97.9209
98.2348
98.6324
99.2049
100.134
101.781
104.849
110.641
121.377
140.256
170.477
170.3
155.07
141.234
129.104
118.854
110.697
104.681
100.575
98.0126
96.5889
95.9327
95.7516
95.8418
96.0756
96.3802
96.7176
97.0695
97.348
97.6064
97.8831
98.1994
98.6006
99.1783
100.116
101.778
104.87
110.697
121.469
140.352
170.486
170.212
155.056
141.274
129.177
118.945
110.782
104.747
100.614
98.0251
96.5797
95.9077
95.7167
95.8013
96.0322
96.3358
96.6731
97.0253
97.3069
97.5669
97.8455
98.1643
98.5689
99.1519
100.099
101.776
104.891
110.752
121.56