/*--------------------------------*- C++ -*----------------------------------*\
  =========                 |
  \\      /  F ield         | OpenFOAM: The Open Source CFD Toolbox
   \\    /   O peration     | Website:  https://openfoam.org
    \\  /    A nd           | Version:  8
     \\/     M anipulation  |
\*---------------------------------------------------------------------------*/
FoamFile
{
    version     2.0;
    format      ascii;
    class       volScalarField;
    location    "1.1";
    object      Q2;
}
// * * * * * * * * * * * * * * * * * * * * * * * * * * * * * * * * * * * * * //

dimensions      [0 0 -1 0 0 0 0];

internalField   nonuniform List<scalar> 
6300
(
0.063958
0.283069
0.525904
0.800471
1.12709
1.52146
1.99802
2.56795
3.23881
4.01566
4.90205
5.90081
7.0143
8.24459
9.59351
11.0627
12.6538
14.3682
16.2074
18.1727
20.2655
22.4872
24.8388
27.3219
29.9387
32.7005
35.6713
39.2173
45.4147
69.3385
0.155171
0.417448
0.685075
0.98548
1.33847
1.76278
2.27322
2.8794
3.58688
4.399
5.31811
6.34612
7.48465
8.73514
10.0988
11.5769
13.1703
14.88
16.7069
18.6519
20.7158
22.8993
25.2029
27.6273
30.1741
32.8546
35.7356
39.1928
45.3428
69.1381
0.187081
0.451184
0.744921
1.08205
1.46932
1.92206
2.45694
3.08615
3.81746
4.65533
5.60206
6.65896
7.82685
9.10634
10.4979
12.0017
13.6181
15.3471
17.189
19.1439
21.212
23.3936
25.689
28.0989
30.626
33.2826
36.1377
39.5641
45.6567
69.4289
0.23761
0.5
0.806895
1.1662
1.58064
2.06073
2.62022
3.27178
4.02446
4.88338
5.85097
6.92825
8.11566
9.41336
10.8213
12.3393
13.9671
15.7035
17.5447
19.4884
21.5399
23.7005
25.9704
28.3497
30.8396
33.4522
36.2603
39.65
45.7628
69.5122
0.29465
0.559044
0.873051
1.24419
1.6746
2.17249
2.74946
3.41714
4.1843
5.0561
6.03506
7.12219
8.31788
9.62223
11.0351
12.5563
14.1855
15.922
17.7556
19.6878
21.7271
23.8739
26.128
28.4897
30.9605
33.5531
36.3425
39.7225
45.8712
69.6185
0.356265
0.625817
0.947141
1.32823
1.77206
2.28592
2.87976
3.56383
4.34618
5.23168
6.2227
7.32025
8.52464
9.8359
11.2538
12.7782
14.4084
16.1441
17.962
19.8838
21.9107
24.0431
26.2809
28.6247
31.0764
33.6496
36.4215
39.7956
45.9847
69.7234
0.422928
0.699409
1.02887
1.41947
1.87533
2.40376
3.01364
3.71397
4.51181
5.41147
6.41508
7.52349
8.73695
10.0554
11.4786
13.0061
14.6375
16.3577
18.1663
20.0775
22.0916
24.2092
26.4306
28.7565
31.1894
33.7438
36.4994
39.8698
46.1006
69.8234
0.495107
0.779209
1.11729
1.51733
1.98444
2.52641
3.15154
3.86774
4.68104
5.59505
6.61149
7.73101
8.95374
10.2795
11.7081
13.2389
14.8714
16.5713
18.371
20.271
22.2721
24.3747
26.5796
28.8876
31.3017
33.8376
36.5777
39.9456
46.218
69.9182
0.573229
0.865109
1.21198
1.62145
2.09942
2.65426
3.29403
4.02572
4.85438
5.78281
6.81223
7.94303
9.17519
10.5085
11.9425
13.4766
15.0931
16.786
18.5764
20.465
22.4526
24.54
26.7282
29.0183
31.4138
33.9313
36.6562
40.0224
46.3361
70.0078
0.657716
0.957262
1.31285
1.73168
2.22027
2.78759
3.44156
4.18846
5.03235
5.97523
7.01774
8.15996
9.40168
10.7425
12.1821
13.7196
15.3165
17.0019
18.7825
20.6593
22.6333
24.7053
26.8766
29.1486
31.5255
34.0247
36.7347
40.0998
46.4542
70.0918
0.748994
1.05593
1.41999
1.84802
2.34705
2.92658
3.59447
4.35634
5.21536
6.17269
7.22837
8.38211
9.63349
10.982
12.4271
13.9567
15.5418
17.2191
18.9897
20.8543
22.8143
24.8706
27.0247
29.2786
31.6366
34.1174
36.8125
40.177
46.5717
70.1701
0.847502
1.16145
1.5336
1.97057
2.47986
3.07142
3.75303
4.52972
5.40378
6.37555
7.44445
8.60978
9.8709
11.2272
12.6778
14.1903
15.7691
17.438
19.1979
21.05
22.9956
25.0359
27.1727
29.408
31.747
34.2092
36.8894
40.2535
46.6881
70.2425
0.953701
1.27416
1.65394
2.09952
2.61886
3.2223
3.9175
4.70889
5.59794
6.58413
7.66628
8.84326
10.1142
11.4782
12.9345
14.4266
15.9986
17.6585
19.4074
21.2465
23.1773
25.2012
27.3202
29.5368
31.8564
34.2997
36.9649
40.3289
46.8031
70.3087
1.06808
1.39448
1.78131
2.23509
2.76424
3.37942
4.08813
4.89416
5.79814
6.79876
7.89418
9.08284
10.3636
11.7353
13.1858
14.6658
16.2305
17.8809
19.6182
21.4439
23.3594
25.3665
27.4673
29.6647
31.9645
34.3886
37.0386
40.4029
46.9163
70.3685
1.19116
1.52281
1.91604
2.37755
2.91623
3.54303
4.26518
5.0858
6.0047
7.01974
8.12845
9.32881
10.6194
11.9989
13.4338
14.9081
16.4648
18.1051
19.8304
21.642
23.5418
25.5316
27.6138
29.7915
32.071
34.4755
37.1102
40.475
47.0273
70.4215
1.32348
1.65959
2.0585
2.52719
3.0751
3.71336
4.44889
5.2841
6.21791
7.24739
8.36939
9.58146
10.8818
12.269
13.6857
15.1535
16.7017
18.3313
20.0439
21.841
23.7245
25.6965
27.7595
29.917
32.1757
34.5601
37.1793
40.545
47.1358
70.4675
1.46565
1.8053
2.20908
2.68435
3.24111
3.89068
4.63956
5.48935
6.43808
7.48199
8.6173
9.84108
11.1512
12.5461
13.9415
15.4023
16.9412
18.5596
20.2589
22.0409
23.9075
25.861
27.9043
30.0409
32.2783
34.6421
37.2456
40.6126
47.2415
70.5059
1.61826
1.96044
2.36817
2.84936
3.4146
4.07529
4.83746
5.70184
6.66551
7.72388
8.8725
10.108
11.4279
12.8235
14.2015
15.6545
17.1835
18.7899
20.4753
22.2414
24.0905
26.0251
28.0479
30.1631
32.3786
34.7213
37.3089
40.6773
47.3441
70.5363
1.782
2.12555
2.53624
3.02261
3.59588
4.2675
5.04291
5.92189
6.90053
7.97337
9.13531
10.3825
11.7121
13.0941
14.4657
15.9102
17.4286
19.0224
20.6931
22.4428
24.2737
26.1884
28.1902
30.2833
32.4761
34.7972
37.3687
40.739
47.4432
70.5583
1.95755
2.30118
2.71373
3.2045
3.78532
4.46765
5.25623
6.14983
7.14347
8.2308
9.40606
10.6649
12.0041
13.3699
14.7344
16.1696
17.6766
19.257
20.9123
22.6448
24.4567
26.351
28.331
30.4012
32.5707
34.8696
37.4249
40.7972
47.5383
70.5713
2.14567
2.48793
2.90116
3.39546
3.9833
4.67609
5.47778
6.386
7.39467
8.49652
9.6851
10.9555
12.3044
13.651
15.0076
16.4327
17.9276
19.4937
21.1329
22.8474
24.6396
26.5126
28.47
30.5165
32.662
34.9382
37.477
40.8518
47.6292
70.5748
2.34715
2.68646
3.09905
3.59593
4.19023
4.89321
5.70792
6.63077
7.6545
8.77089
9.97279
11.2548
12.6132
13.9376
15.2854
16.6996
18.1815
19.7326
21.3548
23.0505
24.8222
26.6731
28.607
30.6291
32.7498
35.0027
37.5248
40.9023
47.7154
70.5681
2.56282
2.89744
3.30798
3.80642
4.40656
5.11943
5.94705
6.88453
7.92335
9.05431
10.2695
11.5631
12.9309
14.2299
15.568
16.9705
18.4385
19.9737
21.5781
23.254
25.0043
26.8322
28.7418
30.7386
32.8337
35.0627
37.568
40.9483
47.7963
70.5506
2.79358
3.12159
3.52853
4.02745
4.63275
5.35517
6.1956
7.14769
8.20163
9.34716
10.5757
11.8808
13.2579
14.528
15.8555
17.2453
18.6985
20.2169
21.8025
23.4578
25.1858
26.9898
28.8742
30.8448
32.9135
35.118
37.6062
40.9896
47.8716
70.5216
3.04038
3.3597
3.76137
4.25958
4.86931
5.60091
6.45401
7.4207
8.48978
9.6499
10.8917
12.2082
13.5757
14.8322
16.1481
17.5241
18.9616
20.4622
22.0281
23.6618
25.3665
27.1457
29.0039
30.9473
32.9888
35.1681
37.639
41.0256
47.9408
70.4802
3.30425
3.61258
4.00718
4.50339
5.11678
5.85716
6.72276
7.70403
8.78825
9.96298
11.218
12.5459
13.8965
15.1424
16.4457
17.8071
19.2278
20.7096
22.2548
23.8659
25.5463
27.2996
29.1306
31.0459
33.0593
35.2128
37.6661
41.0561
48.0031
70.4258
3.58626
3.88113
4.26671
4.75954
5.37573
6.12445
7.00238
7.99818
9.09755
10.2869
11.5552
12.8944
14.2248
15.459
16.7486
18.0942
19.497
20.959
22.4824
24.0699
25.7249
27.4513
29.254
31.1402
33.1246
35.2516
37.6871
41.0805
48.0582
70.3575
3.88758
4.16629
4.54073
5.02871
5.64678
6.40335
7.29342
8.30368
9.41821
10.6221
11.9036
13.254
14.5607
15.7821
17.0568
18.3855
19.7694
21.2104
22.7109
24.2736
25.9022
27.6005
29.3739
31.23
33.1843
35.2842
37.7016
41.0983
48.1053
70.2743
4.20944
4.46908
4.83012
5.31164
5.9306
6.6945
7.59646
8.62113
9.75078
10.9693
12.2639
13.6254
14.9044
16.1117
17.3704
18.681
20.0448
21.4637
22.9401
24.477
26.0779
27.7471
29.49
31.3148
33.2382
35.3102
37.7092
41.1091
48.1437
70.1753
4.55318
4.79058
5.13576
5.60912
6.2279
6.99855
7.91215
8.95113
10.0959
11.3289
12.6366
14.0091
15.2561
16.4481
17.6895
18.9807
20.3232
21.7188
23.1699
24.6797
26.2517
27.8906
29.6019
31.3943
33.2858
35.3291
37.7094
41.1124
48.1729
70.0596
4.92021
5.13196
5.45865
5.92199
6.53945
7.31622
8.24118
9.29435
10.4542
11.7017
13.0224
14.4057
15.6161
16.7914
18.0141
19.2847
20.6045
21.9755
23.4001
24.8816
26.4236
28.0308
29.7092
31.4681
33.3267
35.3406
37.7017
41.1076
48.1919
69.9259
5.31207
5.49447
5.79984
6.25117
6.86607
7.64829
8.58428
9.65152
10.8263
12.0884
13.422
14.8159
15.9846
17.1418
18.3444
19.5929
20.8888
22.2338
23.6306
25.0824
26.593
28.1674
29.8117
31.5359
33.3604
35.3442
37.6858
41.094
48.2
69.7732
5.73041
5.87948
6.16046
6.59766
7.20865
7.99559
8.94225
10.0234
11.2132
12.4896
13.836
15.2404
16.3617
17.4992
18.6802
19.9053
21.1758
22.4935
23.8611
25.2818
26.7598
28.3
29.9089
31.5971
33.3866
35.3394
37.6609
41.0712
48.1964
69.6004
6.177
6.28843
6.54174
6.96251
7.56817
8.35901
9.31597
10.4109
11.6155
12.9062
14.2652
15.6746
16.7477
17.8638
19.0217
20.2218
21.4654
22.7544
24.0914
25.4797
26.9236
28.4282
30.0005
31.6515
33.4048
35.3257
37.6268
41.0383
48.1802
69.4061
6.65376
6.72291
6.94501
7.34689
7.94565
8.73955
9.70637
10.8148
12.0342
13.339
14.7106
16.0909
17.1426
18.2356
19.3688
20.5424
21.7575
23.0162
24.3211
25.6757
27.0841
28.5517
30.0859
31.6985
33.4144
35.3027
37.5827
40.9949
48.1504
69.1892
7.16278
7.18462
7.37171
7.75204
8.34225
9.13826
10.1145
11.2362
12.4702
13.7891
15.173
16.5182
17.5465
18.6148
19.7214
20.8667
22.0519
23.2787
24.5501
25.8693
27.2408
28.6701
30.1648
31.7376
33.4151
35.2698
37.5281
40.9401
48.1061
68.9481
7.70631
7.67542
7.82339
8.17933
8.7592
9.55632
10.5414
11.6762
12.9246
14.2575
15.6534
16.9567
17.9596
19.0011
20.0795
21.1948
22.3482
23.5417
24.7778
26.0602
27.3933
28.7828
30.2367
31.7684
33.4063
35.2265
37.4624
40.8732
48.0462
68.6817
8.2868
8.19733
8.30176
8.63024
9.19785
9.995
10.9884
12.136
13.3987
14.7452
16.1529
17.4064
18.3819
19.3945
20.4427
21.5262
22.6462
23.8046
25.004
26.2481
27.5412
28.8894
30.3011
31.7904
33.3875
35.1723
37.3851
40.7935
47.9698
68.3883
8.90694
8.75256
8.80868
9.10641
9.65969
10.4557
11.4568
12.6169
13.8936
15.2536
16.6728
17.8676
18.8132
19.795
20.8108
21.8607
22.9455
24.0671
25.2282
26.4323
27.684
28.9895
30.3575
31.8031
33.3582
35.1066
37.2956
40.7003
47.8757
68.0666
9.56966
9.34351
9.34619
9.60962
10.1464
10.94
11.9482
13.1204
14.4109
15.784
17.2142
18.3401
19.2534
20.202
21.1836
22.1978
23.2455
24.3286
25.4497
26.6123
27.8212
29.0825
30.4054
31.8059
33.3179
35.029
37.1932
40.5926
47.7629
67.715
10.2782
9.97285
9.91653
10.1418
10.6597
11.4496
12.4641
13.6481
14.952
16.3379
17.7787
18.8238
19.7023
20.6154
21.5604
22.5369
23.5457
24.5886
25.668
26.7876
27.9521
29.1677
30.4443
31.7984
33.2662
34.9389
37.0773
40.4699
47.6301
67.3319
11.0361
10.6435
10.5222
10.7053
11.2016
11.9864
13.0066
14.2018
15.5188
16.9171
18.3678
19.3183
20.1594
21.0344
21.9406
22.8774
23.8454
24.8463
25.8825
26.9575
28.0761
29.2448
30.4736
31.7801
33.2024
34.8358
36.9475
40.3313
47.4764
66.9159
11.8474
11.3588
11.166
11.3024
11.7745
12.5526
13.5776
14.7836
16.1133
17.5233
18.9831
19.8233
20.6239
21.4583
22.3234
23.2184
24.1438
25.1009
26.0923
27.1213
28.1926
29.313
30.4928
31.7505
33.1263
34.7194
36.8032
40.1761
47.3005
66.4654
12.7164
12.1223
11.8509
11.9359
12.3809
13.1507
14.1797
15.3959
16.7377
18.1587
19.6225
20.3377
21.095
21.8862
22.7078
23.5589
24.4397
25.3515
26.2965
27.2782
28.301
29.3718
30.5014
31.7092
33.0374
34.5892
36.644
40.0036
47.1013
65.9789
13.6482
12.9381
12.5805
12.6089
13.0236
13.7834
14.8154
16.0413
17.3945
18.8256
20.1928
20.8605
21.5713
22.3166
23.0925
23.8977
24.7321
25.597
26.4943
27.4273
28.4005
29.4207
30.499
31.6559
32.9356
34.4451
36.4695
39.8132
46.8779
65.455
14.6485
13.811
13.3588
13.325
13.7062
14.4541
15.4881
16.7228
18.0865
19.5264
20.7735
21.39
22.0513
22.7479
23.4758
24.2331
25.0196
25.8362
26.6846
27.5679
28.4904
29.4591
30.4852
31.5903
32.8205
34.2867
36.2794
39.6044
46.6293
64.8921
15.7237
14.7462
14.1904
14.0884
14.4323
15.1665
16.2014
17.4439
18.8168
20.2638
21.3623
21.9239
22.5325
23.178
23.8557
24.5634
25.3005
26.0677
26.8662
27.699
28.5701
29.4865
30.4597
31.5123
32.6923
34.1143
36.0737
39.3768
46.3546
64.2892
16.8815
15.7501
15.0805
14.9038
15.2067
15.925
16.9594
18.2085
19.589
21.0407
21.9561
22.4592
23.0121
23.6041
24.2297
24.8864
25.5731
26.2899
27.038
27.8197
28.639
29.5027
30.4226
31.422
32.5512
33.9281
35.8526
39.1304
46.0531
63.6448
18.1309
16.8299
16.0356
15.777
16.0347
16.7348
17.7672
19.0211
20.4067
21.8599
22.5506
22.9918
23.4864
24.0228
24.5949
25.1996
25.8352
26.5013
27.1986
27.9292
28.6965
29.5074
30.3738
31.3199
32.3977
33.7286
35.6166
38.8652
45.7244
62.9582
19.4828
17.9948
17.0633
16.7148
16.9228
17.6022
18.6305
19.8867
21.2739
22.7238
23.1401
23.5163
23.9505
24.43
24.9479
25.5001
26.0845
26.7
27.3469
28.0266
28.7424
29.5007
30.3138
31.2065
32.2328
33.5171
35.3667
38.5819
45.3684
62.2285
20.9505
19.2555
18.173
17.7259
17.8792
18.5346
19.556
20.8108
22.1945
23.4977
23.7167
24.0259
24.3985
24.8206
25.2842
25.7844
26.3183
26.8841
27.4814
28.1112
28.7763
29.4829
30.2433
31.0832
32.058
33.295
35.1044
38.2817
44.9856
61.4554
22.553
20.6265
19.3763
18.8203
18.9126
19.54
20.5501
21.7976
23.1699
24.1278
24.2707
24.5122
24.8234
25.1888
25.5992
26.0489
26.5339
27.0517
27.6011
28.1826
28.7986
29.4549
30.1638
30.9518
31.8756
33.0651
34.8325
37.9668
44.5773
60.639
24.3088
22.1252
20.689
20.0126
20.037
20.6307
21.623
22.8543
24.2037
24.719
24.7869
24.9624
25.2145
25.526
25.8862
26.2883
26.7272
27.1997
27.704
28.2398
28.809
29.4172
30.0767
30.8143
31.6884
32.8307
34.5543
37.6406
44.1461
59.7812
26.2671
23.7797
22.1286
21.3141
21.2592
21.8093
22.7718
23.9717
25.2801
25.2576
25.254
25.3678
25.5652
25.8272
26.1416
26.5002
26.8972
27.3283
27.7909
28.2844
28.81
29.373
29.9859
30.6758
31.5021
32.5981
34.2771
37.3103
43.6979
58.8839
28.4308
25.6169
23.729
22.7605
22.6138
23.1073
24.023
25.1698
25.9542
25.6992
25.6361
25.6989
25.8515
26.0729
26.3495
26.6719
27.0333
27.4289
27.8555
28.3118
28.7987
29.3213
29.8918
30.538
31.3199
32.3721
34.0065
36.9822
43.2401
57.9597
31.0264
27.7125
25.4977
24.3241
24.0501
24.4532
25.2842
26.3359
26.3758
26.0628
25.9522
25.9749
26.0923
26.2816
26.5279
26.8209
27.153
27.5188
27.9146
28.3387
28.7918
29.2786
29.8115
30.4184
31.1604
32.1723
33.764
36.6792
42.7928
57.0095
33.7778
30.0827
27.5621
26.1735
25.7474
26.0254
26.7285
27.1557
26.5119
26.1914
26.0734
26.0884
26.1973
26.3769
26.6119
26.8918
27.209
27.5579
27.9347
28.3374
28.7667
29.2272
29.7314
30.3075
31.0171
31.995
33.548
36.4035
42.3704
56.1046
38.2168
32.9567
29.6324
27.7959
27.0701
27.0918
27.5223
27.3343
26.7184
26.4058
26.2896
26.3024
26.406
26.5772
26.8013
27.0678
27.3692
27.6999
28.0561
28.4358
28.8396
29.2722
29.7464
30.291
30.9685
31.9141
33.4306
36.2241
42.022
55.166
41.4047
36.3627
32.7369
30.462
29.288
28.7174
27.5662
26.6709
26.2186
26.0372
26.0197
26.1076
26.2687
26.4843
26.7425
27.035
27.3558
27.7004
28.0656
28.4501
28.8546
29.2842
29.7518
30.2862
30.9495
31.8759
33.3639
36.1062
41.7834
54.5996
54.2627
39.3841
32.8423
29.5604
27.8996
27.1843
26.9437
26.8281
26.7241
26.6822
26.7149
26.8102
26.956
27.1435
27.3657
27.6172
27.8933
28.1903
28.5056
28.838
29.1885
29.5625
29.9735
30.451
31.0579
31.9276
33.3501
35.9833
41.3956
53.4391
65.648
44.0179
34.5914
30.4213
28.509
27.5963
27.0209
26.5978
26.3615
26.2784
26.3015
26.3994
26.5537
26.7529
26.989
27.256
27.5494
27.8653
28.2016
28.5572
28.934
29.338
29.7838
30.3025
30.9592
31.8892
33.3829
36.0861
41.5091
53.3113
57.1308
44.9771
37.0916
32.2699
29.5768
28.2324
27.7079
27.6544
27.8425
28.1054
28.2948
28.3774
28.4412
28.5333
28.6633
28.8298
29.0288
29.256
29.5079
29.7824
30.0797
30.4046
30.7699
31.2047
31.7711
32.6005
33.9765
36.5345
41.7814
53.3411
59.2687
47.783
39.7484
34.6373
31.6099
29.9699
29.2113
28.9748
28.9706
28.8409
28.6882
28.6188
28.622
28.684
28.7945
28.9456
29.1309
29.3453
29.5848
29.8472
30.1326
30.4453
30.7981
31.2196
31.7713
32.5838
33.9399
36.474
41.6794
53.0729
57.7234
47.9138
40.6164
35.651
32.5165
30.6955
29.7615
29.3892
29.3493
29.4904
29.5554
29.4553
29.4221
29.4471
29.52
29.6331
29.7799
29.9554
30.1555
30.3778
30.6222
30.8927
31.2016
31.5771
32.0804
32.8422
34.146
36.6283
41.7828
53.0651
57.383
48.4013
41.4915
36.6286
33.4475
31.5207
30.4691
29.9878
29.8533
29.9168
29.9044
29.8032
29.7715
29.7938
29.8598
29.9624
30.0959
30.2555
30.4376
30.6399
30.8624
31.109
31.3921
31.7397
32.2133
32.9443
34.2183
36.6764
41.8147
53.021
56.8931
48.498
41.9284
37.199
34.0303
32.0562
30.9342
30.3793
30.1763
30.1783
30.2263
30.1345
30.1061
30.1264
30.186
30.2787
30.3992
30.5432
30.7074
30.8897
31.09
31.3125
31.5695
31.8894
32.334
33.0363
34.285
36.7271
41.8611
53.02
56.5767
48.5786
42.2501
37.6258
34.4786
32.481
31.3149
30.7092
30.4557
30.4101
30.4295
30.3524
30.3324
30.3556
30.4137
30.501
30.613
30.7458
30.8965
31.0629
31.2455
31.4485
31.6844
31.982
32.404
33.0851
34.3177
36.7467
41.879
53.0207
56.313
48.6065
42.4604
37.9204
34.7968
32.7892
31.5959
30.9559
30.6665
30.5854
30.5798
30.5179
30.5072
30.5346
30.5925
30.676
30.7812
30.9046
31.0435
31.1963
31.3633
31.5493
31.767
32.0458
32.4494
33.1145
34.3238
36.6939
41.8833
53.0296
56.1073
48.6246
42.6173
38.1409
35.0359
33.0227
31.8111
31.1471
30.8317
30.7241
30.682
30.6351
30.6343
30.6669
30.7261
30.8075
30.9076
31.0234
31.1527
31.2939
31.4479
31.6196
31.8221
32.0857
32.4751
33.1289
34.2583
36.6658
41.9041
53.0413
55.9385
48.6357
42.7376
38.3095
35.2171
33.199
31.9738
31.2923
30.9578
30.8305
30.7521
30.7191
30.728
30.7662
30.8275
30.9078
31.0041
31.1139
31.235
31.3666
31.5096
31.6693
31.8594
32.1107
32.4893
33.0641
34.2121
36.6542
41.9356
53.0555
55.7987
48.6457
42.8363
38.4446
35.3593
33.3351
32.0983
31.4031
31.0541
30.883
30.7978
30.7773
30.7953
30.8393
30.9031
30.9832
31.0769
31.1819
31.2965
31.4201
31.554
31.7039
31.8839
32.1256
32.4442
33.012
34.18
36.6541
41.974
53.0709
55.6803
48.6557
42.9205
38.5569
35.474
33.4419
32.194
31.4825
31.0863
30.8983
30.8259
30.8163
30.8426
30.8922
30.9589
31.0395
31.1314
31.2328
31.3422
31.4593
31.5858
31.7276
31.8996
32.0967
32.3926
32.9714
34.1581
36.662
42.0167
53.0873
55.5784
48.6666
42.9952
38.6536
35.5695
33.5272
32.2173
31.47
31.0812
30.9031
30.841
30.8407
30.8745
30.9294
30.9991
31.0805
31.1714
31.2702
31.3756
31.4875
31.608
31.7435
31.8811
32.0489
32.3505
32.9396
34.1438
36.6758
42.0624
53.1043
55.4892
48.6783
43.063
38.7391
35.6509
33.5225
32.205
31.4566
31.0717
30.9005
30.8465
30.8541
30.8945
30.9542
31.027
31.1096
31.2
31.2969
31.3992
31.5071
31.6229
31.7303
31.8386
32.0089
32.3159
32.9146
34.1354
36.6939
42.11
53.1219
55.4102
48.6906
43.1257
38.8165
35.6725
33.5235
32.196
31.4435
31.0595
30.8929
30.8452
30.8592
30.9053
30.9694
31.045
31.129
31.2195
31.3151
31.4152
31.52
31.612
31.6935
31.8023
31.9751
32.2871
32.895
34.1315
36.7154
42.159
53.14
55.3391
48.7034
43.1845
38.8879
35.6939
33.5299
32.1903
31.4312
31.0459
30.8819
30.8387
30.858
30.909
30.977
31.0553
31.1408
31.2316
31.3265
31.4249
31.5109
31.5808
31.6616
31.771
31.9462
32.2631
32.8796
34.1312
36.7395
42.209
53.1585
55.2743
48.7164
43.24
38.9531
35.7207
33.5409
32.1876
31.4201
31.0317
30.8685
30.8286
30.852
30.9071
30.9786
31.0594
31.1465
31.2378
31.3324
31.4198
31.4847
31.5532
31.6335
31.7438
31.9213
32.2428
32.8676
34.1339
36.7658
42.2598
53.1773
55.2147
48.7293
43.2928
38.9946
35.7519
33.5557
32.1876
31.4103
31.0174
30.8538
30.8159
30.8425
30.901
30.9754
31.0586
31.1472
31.2392
31.3337
31.3977
31.461
31.5284
31.6086
31.7198
31.8996
32.2256
32.8584
34.1389
36.7939
42.3112
53.1963
55.1593
48.7422
43.3432
39.0383
35.7864
33.5737
32.1901
31.402
31.0034
30.8381
30.8013
30.8303
30.8916
30.9686
31.0539
31.1439
31.2367
31.3164
31.3772
31.4392
31.506
31.5863
31.6984
31.8806
32.2108
32.8515
34.146
36.8234
42.3629
53.2155
55.1073
48.7547
43.3916
39.0842
35.8236
33.5944
32.1948
31.395
30.9898
30.822
30.7854
30.8161
30.8797
30.959
31.0461
31.1374
31.2311
31.2983
31.3579
31.4191
31.4855
31.566
31.6792
31.8636
32.1982
32.8465
34.1547
36.8541
42.4148
53.2348
55.0582
48.7668
43.4379
39.1315
35.8627
33.6172
32.2014
31.3894
30.9767
30.8056
30.7686
30.8005
30.8658
30.947
31.0358
31.1285
31.2228
31.2808
31.3396
31.4002
31.4664
31.5473
31.6617
31.8485
32.1872
32.8431
34.1648
36.8858
42.4668
53.254
55.0113
48.7784
43.4826
39.1798
35.9033
33.6418
32.2096
31.3849
30.9644
30.7893
30.7513
30.7838
30.8506
30.9333
31.0236
31.1175
31.2064
31.2637
31.322
31.3823
31.4486
31.53
31.6456
31.8347
32.1775
32.841
34.1761
36.9183
42.5188
53.2731
54.9664
48.7894
43.5255
39.2285
35.9451
33.6679
32.2194
31.3817
30.9527
30.7732
30.7336
30.7664
30.8342
30.9183
31.0099
31.1048
31.1901
31.247
31.305
31.3652
31.4318
31.5138
31.6307
31.8221
32.1691
32.84
34.1884
36.9515
42.5707
53.292
54.9231
48.7999
43.5669
39.2774
35.9876
33.6953
32.2304
31.3795
30.9417
30.7574
30.7158
30.7484
30.817
30.9023
30.995
31.091
31.1738
31.2305
31.2884
31.3488
31.4157
31.4985
31.6167
31.8105
32.1616
32.8399
34.2015
36.9852
42.6223
53.3106
54.8812
48.8098
43.6069
39.3262
36.0307
33.7237
32.2426
31.3784
30.9313
30.7418
30.698
30.7302
30.7993
30.8855
30.9792
31.0761
31.1575
31.2143
31.2723
31.3329
31.4003
31.4839
31.6035
31.7996
32.1549
32.8406
34.2154
37.0194
42.6736
53.329
54.8405
48.819
43.6455
39.3748
36.0742
33.7529
32.2558
31.3781
30.9217
30.7267
30.6803
30.7118
30.7812
30.8681
30.9627
31.0604
31.1411
31.1981
31.2564
31.3174
31.3853
31.4699
31.591
31.7895
32.1488
32.842
34.2299
37.0539
42.7246
53.347
54.8008
48.8276
43.6828
39.4229
36.1177
33.7828
32.2699
31.3787
30.9127
30.712
30.6628
30.6933
30.7628
30.8503
30.9457
31.0442
31.1248
31.1821
31.2408
31.3022
31.3708
31.4564
31.5789
31.7798
32.1434
32.844
34.2449
37.0886
42.7751
53.3646
54.762
48.8356
43.7188
39.4705
36.1613
33.8132
32.2848
31.3801
30.9044
30.6977
30.6454
30.6748
30.7443
30.8322
30.9283
31.0275
31.1085
31.1663
31.2253
31.2873
31.3567
31.4432
31.5673
31.7706
32.1384
32.8464
34.2603
37.1235
42.8252
53.3818
54.7239
48.843
43.7537
39.5175
36.2049
33.8441
32.3004
31.3822
30.8967
30.6838
30.6283
30.6564
30.7257
30.814
30.9106
31.0105
31.0923
31.1505
31.2101
31.2727
31.3428
31.4304
31.5561
31.7619
32.1338
32.8492
34.2761
37.1585
42.8747
53.3986
54.6865
48.8497
43.7874
39.5638
36.2482
33.8753
32.3166
31.385
30.8895
30.6704
30.6115
30.6381
30.7071
30.7957
30.8928
30.9933
31.076
31.1348
31.195
31.2583
31.3292
31.4179
31.5451
31.7534
32.1295
32.8524
34.2922
37.1935
42.9238
53.4148
54.6497
48.8559
43.8201
39.6093
36.2913
33.9067
32.3333
31.3884
30.8829
30.6574
30.595
30.62
30.6885
30.7773
30.8749
30.9759
31.0598
31.1191
31.18
31.244
31.3158
31.4056
31.5344
31.7452
32.1255
32.8559
34.3086
37.2286
42.9722
53.4306
54.6134
48.8615
43.8517
39.6541
36.3341
33.9383
32.3505
31.3924
30.8769
30.6448
30.5787
30.6021
30.6701
30.759
30.8569
30.9584
31.0436
31.1036
31.1651
31.2299
31.3025
31.3935
31.5239
31.7372
32.1218
32.8597
34.3251
37.2636
43.02
53.446
54.5777
48.8665
43.8823
39.6981
36.3765
33.9701
32.3682
31.3969
30.8714
30.6327
30.5628
30.5844
30.6518
30.7407
30.839
30.9409
31.0275
31.0881
31.1503
31.2158
31.2894
31.3815
31.5136
31.7294
32.1182
32.8637
34.3419
37.2985
43.0673
53.4608
54.5424
48.871
43.912
39.7413
36.4185
34.0019
32.3863
31.402
30.8663
30.6209
30.5472
30.5669
30.6336
30.7225
30.821
30.9234
31.0114
31.0728
31.1357
31.202
31.2765
31.3697
31.5034
31.7217
32.1149
32.8678
34.3589
37.3334
43.1139
53.4751
54.5074
48.875
43.9408
39.7836
36.4602
34.0338
32.4047
31.4075
30.8618
30.6096
30.5319
30.5497
30.6156
30.7044
30.8032
30.906
30.9954
31.0575
31.1211
31.1882
31.2636
31.358
31.4933
31.7143
32.1117
32.8722
34.3759
37.3681
43.1599
53.4889
54.4729
48.8784
43.9687
39.8252
36.5013
34.0656
32.4234
31.4134
30.8577
30.5987
30.517
30.5327
30.5978
30.6864
30.7854
30.8886
30.9795
31.0422
31.1066
31.1745
31.2508
31.3464
31.4834
31.7069
32.1087
32.8767
34.3931
37.4027
43.2053
53.5021
54.4388
48.8814
43.9958
39.866
36.5421
34.0974
32.4424
31.4198
30.854
30.5881
30.5023
30.5159
30.5802
30.6686
30.7678
30.8712
30.9637
31.0271
31.0922
31.1609
31.2382
31.3349
31.4736
31.6996
32.1058
32.8814
34.4104
37.4372
43.25
53.5149
54.4049
48.884
44.022
39.9059
36.5823
34.1292
32.4616
31.4266
30.8508
30.5779
30.488
30.4994
30.5627
30.6509
30.7502
30.854
30.9479
31.012
31.0778
31.1473
31.2256
31.3235
31.4639
31.6925
32.103
32.8862
34.4277
37.4715
43.2941
53.5272
54.3714
48.8861
44.0475
39.9451
36.6221
34.1608
32.481
31.4338
30.8479
30.5681
30.4739
30.4831
30.5455
30.6334
30.7328
30.8369
30.9323
30.9971
31.0636
31.1339
31.2131
31.3122
31.4542
31.6854
32.1003
32.8911
34.4451
37.5056
43.3375
53.5391
54.3382
48.8878
44.0723
39.9835
36.6613
34.1924
32.5007
31.4413
30.8455
30.5587
30.4602
30.4671
30.5284
30.6161
30.7155
30.8198
30.9167
30.9822
31.0494
31.1205
31.2006
31.301
31.4446
31.6784
32.0977
32.8961
34.4626
37.5395
43.3804
53.5504
54.3053
48.889
44.0963
40.0212
36.7001
34.2238
32.5205
31.4491
30.8434
30.5496
30.4468
30.4513
30.5116
30.5989
30.6984
30.803
30.9012
30.9673
31.0353
31.1072
31.1883
31.2898
31.4351
31.6715
32.0951
32.9012
34.4801
37.5733
43.4226
53.5613
54.2727
48.8899
44.1197
40.0581
36.7384
34.2551
32.5404
31.4573
30.8417
30.5409
30.4336
30.4357
30.495
30.5819
30.6814
30.7862
30.8858
30.9526
31.0213
31.094
31.176
31.2786
31.4256
31.6647
32.0927
32.9064
34.4976
37.6068
43.4642
53.5717
54.2403
48.8905
44.1424
40.0943
36.7762
34.2862
32.5605
31.4657
30.8403
30.5324
30.4208
30.4205
30.4785
30.5651
30.6646
30.7696
30.8705
30.938
31.0074
31.0809
31.1637
31.2676
31.4162
31.6579
32.0904
32.9116
34.5152
37.6401
43.5051
53.5816
54.2082
48.8906
44.1644
40.1297
36.8135
34.3172
32.5807
31.4744
30.8393
30.5244
30.4082
30.4054
30.4623
30.5484
30.6479
30.7531
30.8553
30.9234
30.9935
31.0678
31.1515
31.2566
31.4069
31.6512
32.0881
32.917
34.5328
37.6732
43.5455
53.5911
54.1764
48.8905
44.1858
40.1645
36.8504
34.348
32.6011
31.4834
30.8386
30.5166
30.3959
30.3906
30.4462
30.5319
30.6314
30.7367
30.8402
30.909
30.9798
31.0548
31.1394
31.2456
31.3976
31.6445
32.0859
32.9224
34.5504
37.7061
43.5853
53.6002
54.1448
48.89
44.2066
40.1986
36.8867
34.3786
32.6215
31.4927
30.8383
30.5091
30.3839
30.376
30.4304
30.5156
30.615
30.7205
30.8252
30.8946
30.9661
31.0418
31.1274
31.2347
31.3884
31.638
32.0838
32.928
34.5681
37.7388
43.6244
53.6088
54.1134
48.8892
44.2269
40.232
36.9226
34.409
32.6419
31.5022
30.8382
30.502
30.3721
30.3616
30.4147
30.4994
30.5988
30.7044
30.8103
30.8803
30.9524
31.0289
31.1154
31.2239
31.3792
31.6314
32.0817
32.9336
34.5857
37.7713
43.663
53.6171
54.0823
48.8881
44.2465
40.2648
36.958
34.4393
32.6625
31.5119
30.8384
30.4951
30.3606
30.3474
30.3992
30.4834
30.5827
30.6884
30.7955
30.8661
30.9389
31.0161
31.1034
31.2131
31.3701
31.6249
32.0798
32.9392
34.6034
37.8035
43.701
53.6249
54.0514
48.8867
44.2657
40.297
36.993
34.4693
32.6831
31.5219
30.8389
30.4885
30.3494
30.3335
30.384
30.4676
30.5667
30.6726
30.7808
30.852
30.9254
31.0033
31.0915
31.2023
31.361
31.6185
32.0778
32.945
34.621
37.8355
43.7385
53.6323
54.0207
48.8851
44.2843
40.3267
37.0274
34.4991
32.7037
31.532
30.8397
30.4822
30.3384
30.3198
30.3689
30.4519
30.5509
30.6569
30.7656
30.8379
30.912
30.9907
31.0797
31.1917
31.352
31.6122
32.076
32.9508
34.6387
37.8673
43.7754
53.6394
53.9903
48.8832
44.3024
40.3555
37.0615
34.5287
32.7244
31.5424
30.8408
30.4762
30.3277
30.3063
30.354
30.4364
30.5353
30.6414
30.7503
30.824
30.8987
30.978
31.0679
31.181
31.343
31.6059
32.0742
32.9566
34.6563
37.8989
43.8117
53.6461
53.9601
48.8811
44.3201
40.3838
37.095
34.5582
32.7451
31.5529
30.8421
30.4705
30.3172
30.293
30.3392
30.4211
30.5198
30.6259
30.7351
30.8101
30.8854
30.9655
31.0562
31.1704
31.3341
31.5996
32.0725
32.9626
34.674
37.9302
43.8475
53.6524
53.9301
48.8787
44.3372
40.4116
37.1282
34.5874
32.7658
31.5636
30.8437
30.465
30.307
30.2799
30.3247
30.4059
30.5044
30.6106
30.7199
30.7963
30.8722
30.953
31.0446
31.1599
31.3252
31.5934
32.0709
32.9686
34.6916
37.9614
43.8828
53.6583
53.9003
48.8761
44.3539
40.439
37.1609
34.6164
32.7865
31.5745
30.8456
30.4598
30.297
30.2671
30.3103
30.3908
30.4892
30.5954
30.705
30.7826
30.8591
30.9405
31.0329
31.1494
31.3164
31.5873
32.0693
32.9746
34.7092
37.9922
43.9176
53.6639
53.8707
48.8732
44.3702
40.4659
37.1931
34.6451
32.8072
31.5856
30.8476
30.4548
30.2872
30.2544
30.2961
30.3759
30.4741
30.5804
30.6901
30.769
30.846
30.9281
31.0214
31.139
31.3076
31.5812
32.0678
32.9808
34.7269
38.0229
43.9518
53.6692
53.8414
48.8702
44.386
40.4923
37.225
34.6737
32.828
31.5968
30.8499
30.4501
30.2776
30.2419
30.282
30.3612
30.4591
30.5655
30.6753
30.7554
30.8331
30.9158
31.0099
31.1286
31.2989
31.5752
32.0664
32.987
34.7445
38.0534
43.9855
53.6741
53.8122
48.867
44.4014
40.5183
37.2564
34.702
32.8487
31.6082
30.8525
30.4456
30.2683
30.2296
30.2682
30.3466
30.4443
30.5506
30.6607
30.7419
30.8201
30.9035
30.9984
31.1182
31.2902
31.5692
32.065
32.9932
34.7621
38.0836
44.0188
53.6787
53.7832
48.8636
44.4164
40.5438
37.2874
34.7301
32.8694
31.6197
30.8552
30.4414
30.2592
30.2175
30.2545
30.3321
30.4296
30.5359
30.6461
30.7285
30.8073
30.8914
30.9871
31.1079
31.2816
31.5633
32.0637
32.9995
34.7797
38.1136
44.0515
53.6829
53.7545
48.86
44.431
40.5689
37.3181
34.758
32.8901
31.6313
30.8582
30.4374
30.2503
30.2056
30.2409
30.3178
30.415
30.5214
30.6317
30.7152
30.7945
30.8792
30.9757
31.0977
31.273
31.5575
32.0624
33.0059
34.7972
38.1434
44.0838
53.6869
53.7259
48.8562
44.4453
40.5936
37.3483
34.7857
32.9108
31.6431
30.8614
30.4336
30.2417
30.1939
30.2275
30.3036
30.4005
30.5069
30.6174
30.702
30.7818
30.8671
30.9644
31.0875
31.2645
31.5517
32.0613
33.0124
34.8148
38.1729
44.1156
53.6906
53.6975
48.8523
44.4591
40.6178
37.3781
34.8131
32.9314
31.655
30.8647
30.4301
30.2332
30.1824
30.2143
30.2896
30.3862
30.4925
30.6031
30.6888
30.7692
30.8551
30.9532
31.0774
31.256
31.5459
32.0602
33.0189
34.8323
38.2023
44.1469
53.694
53.6693
48.8482
44.4726
40.6417
37.4076
34.8404
32.952
31.667
30.8683
30.4267
30.2249
30.171
30.2012
30.2757
30.372
30.4783
30.589
30.6757
30.7566
30.8431
30.942
31.0673
31.2476
31.5403
32.0592
33.0254
34.8498
38.2314
44.1778
53.697
53.6413
48.8439
44.4858
40.6652
37.4366
34.8674
32.9726
31.6791
30.872
30.4236
30.2169
30.1599
30.1883
30.2619
30.3578
30.4641
30.575
30.6627
30.7441
30.8312
30.9309
31.0572
31.2392
31.5347
32.0582
33.032
34.8673
38.2603
44.2082
53.6998
53.6134
48.8395
44.4986
40.6883
37.4653
34.8942
32.9931
31.6913
30.876
30.4207
30.209
30.1489
30.1755
30.2483
30.3439
30.4501
30.5611
30.6498
30.7316
30.8194
30.9198
31.0472
31.2309