/*--------------------------------*- C++ -*----------------------------------*\
  =========                 |
  \\      /  F ield         | OpenFOAM: The Open Source CFD Toolbox
   \\    /   O peration     | Website:  https://openfoam.org
    \\  /    A nd           | Version:  8
     \\/     M anipulation  |
\*---------------------------------------------------------------------------*/
FoamFile
{
    version     2.0;
    format      ascii;
    class       volScalarField;
    location    "1.1";
    object      tb4;
}
// * * * * * * * * * * * * * * * * * * * * * * * * * * * * * * * * * * * * * //

dimensions      [0 0 0 0 0 0 0];

internalField   nonuniform List<scalar> 
6300
(
983.269
477.36
326.775
260.573
221.599
194.821
174.605
158.499
145.281
134.239
124.89
116.887
109.965
103.925
98.6097
93.897
89.69
85.9108
82.4965
79.3957
76.5661
73.9726
71.5859
69.3814
67.3373
65.4293
63.6068
61.6762
58.7817
51.3088
673.846
381.53
288.478
239.54
208.11
185.356
167.597
153.132
141.08
130.898
122.204
114.709
108.191
102.475
97.4234
92.9281
88.9017
85.2741
81.9879
78.996
76.2595
73.7459
71.4279
69.282
67.2875
65.42
63.6272
61.7149
58.8198
51.3733
541.451
353.246
275.532
231.407
202.268
180.918
164.13
150.373
138.848
129.066
120.68
113.427
107.102
101.542
96.62
92.2325
88.2976
84.7484
81.5301
78.5977
75.9136
73.4465
71.1697
69.0608
67.099
65.2605
63.4938
61.6059
58.7269
51.3633
453.635
326.019
262.307
223.291
196.532
176.555
160.691
147.609
136.596
127.211
119.139
112.137
106.015
100.622
95.8364
91.5635
87.7255
84.2592
81.1146
78.2486
75.6223
73.2054
70.9725
68.9023
66.9753
65.1683
63.4291
61.5596
58.6717
51.3813
395.893
302.846
250.103
215.756
191.315
172.663
157.651
145.17
134.609
125.578
117.787
111.013
105.076
99.8345
95.1747
91.0062
87.2554
83.8625
80.7831
77.9735
75.395
73.019
70.8215
68.7821
66.8818
65.0978
63.3773
61.5172
58.6158
51.3976
354.566
283.268
238.937
208.604
186.314
168.931
154.74
142.831
132.696
123.996
116.471
109.913
104.153
99.058
94.5202
90.4538
86.7891
83.4692
80.4586
77.704
75.1727
72.8374
70.6751
68.6661
66.7921
65.0304
63.3273
61.4743
58.5588
51.4157
322.948
266.518
228.757
201.841
181.506
165.327
151.926
140.569
130.842
122.459
115.187
108.835
103.246
98.2922
93.8727
89.906
86.3257
83.086
80.1389
77.4383
74.9535
72.6584
70.5308
68.5519
66.7037
64.9637
63.2773
61.4301
58.5012
51.4353
297.653
251.988
219.479
195.476
176.899
161.844
149.199
138.375
129.041
120.962
113.933
107.78
102.355
97.5376
93.2331
89.3635
85.8659
82.7076
79.8224
77.1751
74.7362
72.4809
70.3877
68.4385
66.6158
64.8974
63.227
61.3853
58.4438
51.4564
276.794
239.221
210.997
189.497
172.496
158.483
146.554
136.241
127.287
119.5
112.706
106.744
101.477
96.7933
92.6006
88.8258
85.4201
82.3328
79.5086
76.9139
74.5205
72.3044
70.2455
68.3258
66.5286
64.8315
63.177
61.3402
58.3869
51.4789
259.206
227.876
203.209
183.879
168.292
155.241
143.988
134.163
125.574
118.071
111.503
105.726
100.613
96.0581
91.9744
88.2923
84.9787
81.9613
79.1972
76.6545
74.3061
72.1292
70.1041
68.2138
66.4419
64.7659
63.127
61.2949
58.3308
51.5029
244.116
217.699
196.022
178.591
164.279
152.114
141.496
132.137
123.9
116.67
110.322
104.725
99.7609
95.3312
91.3539
87.7706
84.5415
81.5928
78.8881
76.3967
74.0929
71.9547
69.9634
68.1025
66.3558
64.701
63.0775
61.2497
58.2756
51.5284
230.982
208.495
189.36
173.605
160.445
149.099
139.077
130.161
122.262
115.297
109.161
103.738
98.9192
94.6119
90.7386
87.2584
84.1079
81.227
78.5809
76.1404
73.8808
71.7812
69.8236
67.9918
66.2705
64.6368
63.0287
61.205
58.2215
51.5552
219.412
200.112
183.158
168.891
156.778
146.189
136.726
128.233
120.659
113.949
108.018
102.765
98.0875
93.8997
90.1282
86.7508
83.6778
80.8638
78.2756
75.8855
73.6699
71.6088
69.6846
67.8822
66.186
64.5735
62.9807
61.1608
58.1686
51.5836
209.112
192.43
177.362
164.425
153.268
143.38
134.443
126.351
119.088
112.624
106.894
101.804
97.2652
93.194
89.5309
86.2476
83.2509
80.5029
77.9721
75.632
73.4602
71.4372
69.5466
67.7734
66.1026
64.5113
62.9336
61.1172
58.117
51.6135
199.859
185.352
171.927
160.184
149.902
140.666
132.222
124.512
117.547
111.323
105.785
100.856
96.4516
92.4945
88.9445
85.7485
82.8269
80.1442
77.6703
75.3799
73.2515
71.2667
69.4095
67.6657
66.0203
64.4501
62.8875
61.0745
58.0667
51.6451
191.481
178.8
166.814
156.148
146.67
138.04
130.062
122.714
116.037
110.042
104.693
99.9198
95.6462
91.8008
88.3634
85.2531
82.4058
79.7876
77.3701
75.129
73.044
71.0973
69.2736
67.559
65.9392
64.3904
62.8426
61.0327
58.018
51.6783
183.841
172.708
161.991
152.3
143.563
135.499
127.96
120.957
114.555
108.783
103.615
98.9942
94.8487
91.1127
87.7871
84.7614
81.9874
79.4331
77.0714
74.8794
72.8376
70.9289
69.1387
67.4537
65.8595
64.332
62.7991
60.9919
57.9708
51.7133
176.831
167.021
157.43
148.626
140.572
133.038
125.912
119.238
113.1
107.542
102.552
98.079
94.0586
90.4351
87.2155
84.2731
81.5715
79.0804
76.7743
74.6311
72.6323
70.7617
69.0052
67.3497
65.7813
64.2752
62.7569
60.9523
57.9253
51.7502
170.363
161.695
153.106
145.11
137.69
130.65
123.916
117.555
111.671
106.321
101.503
97.1736
93.2756
89.7731
86.6483
83.788
81.158
78.7296
76.4786
74.3841
72.4283
70.5958
68.8729
67.2472
65.7047
64.22
62.7163
60.9139
57.8816
51.7891
164.365
156.69
148.998
141.74
134.909
128.334
121.97
115.908
110.267
105.118
100.467
96.2778
92.4994
89.1168
86.0853
83.306
80.7469
78.3807
76.1844
74.1383
72.2255
70.4311
68.742
67.1462
65.6297
64.1667
62.6773
60.877
57.8399
51.83
158.78
151.973
145.087
138.507
132.222
126.084
120.07
114.294
108.888
103.932
99.4431
95.391
91.7295
88.466
85.5264
82.8271
80.3379
78.0334
75.8916
73.8939
72.0239
70.2677
68.6126
67.0468
65.5567
64.1151
62.6401
60.8416
57.8002
51.8732
153.557
147.516
141.357
135.4
129.624
123.896
118.216
112.712
107.531
102.763
98.4315
94.513
90.9659
87.8205
84.9713
82.351
79.9312
77.6878
75.6003
73.6507
71.8237
70.1057
68.4848
66.9493
65.4855
64.0657
62.6048
60.8078
57.7627
51.9188
148.657
143.293
137.793
132.409
127.109
121.768
116.403
111.16
106.197
101.611
97.4316
93.6433
90.2081
87.1801
84.4199
81.8776
79.5265
77.3439
75.3104
73.4089
71.6249
69.9453
68.3586
66.8537
65.4164
64.0184
62.5714
60.7759
57.7275
51.9668
144.044
139.285
134.382
129.528
124.672
119.696
114.632
109.638
104.883
100.473
96.443
92.7817
89.456
86.5446
83.8722
81.4069
79.1239
77.0017
75.022
73.1686
71.4275
69.7865
68.2342
66.76
65.3495
63.9733
62.5402
60.7458
57.6949
52.0175
139.69
135.471
131.113
126.748
122.308
117.677
112.899
108.144
103.591
99.3505
95.465
91.9277
88.7231
85.9138
83.3279
80.9389
78.7233
76.6612
74.735
72.9295
71.2316
69.6293
68.1118
66.6684
65.2849
63.9306
62.5113
60.7178
57.6648
52.071
135.568
131.836
127.975
124.064
120.013
115.708
111.202
106.677
102.318
98.2422
94.4974
91.0812
87.9996
85.2876
82.7871
80.4734
78.3247
76.3222
74.4495
72.6921
71.0373
69.4738
67.9913
66.579
65.2228
63.8904
62.4847
60.6921
57.6377
52.1275
131.658
128.364
124.959
121.469
117.783
113.786
109.54
105.235
101.063
97.1476
93.5397
90.2417
87.2822
84.6658
82.2495
80.0103
77.9281
75.985
74.1655
72.4561
70.8446
69.3202
67.8729
66.4921
65.1632
63.8529
62.4608
60.6688
57.6135
52.1872
127.94
125.044
122.056
118.957
115.615
111.91
107.912
103.818
99.8268
96.0661
92.5916
89.409
86.5707
84.0484
81.7152
79.5498
77.5334
75.6494
73.8831
72.2217
70.6536
69.1685
67.7567
66.4077
65.1065
63.8183
62.4395
60.6481
57.5926
52.2504
124.398
121.863
119.259
116.523
113.503
110.076
106.315
102.424
98.6076
94.9973
91.6527
88.5829
85.8648
83.4352
81.184
79.0916
77.1407
75.3155
73.6024
71.9891
70.4646
69.0189
67.6428
66.3259
65.0525
63.7866
62.4211
60.6303
57.5752
52.3172
121.017
118.811
116.56
114.164
111.447
108.283
104.748
101.053
97.4049
93.9405
90.7225
87.7631
85.1644
82.8261
80.6559
78.6359
76.7499
74.9834
73.3232
71.7582
70.2774
68.8716
67.5315
66.2469
65.0016
63.7581
62.4058
60.6155
57.5614
52.3879
117.784
115.879
113.954
111.873
109.442
106.528
103.21
99.703
96.2181
92.8954
89.8007
86.9492
84.4694
82.221
80.1309
78.1826
76.3612
74.653
73.0459
71.529
70.0923
68.7265
67.4228
66.1708
64.954
63.733
62.3938
60.604
57.5517
52.4627
114.688
113.058
111.434
109.647
107.486
104.81
101.699
98.3733
95.0463
91.8614
88.887
86.1411
83.7797
81.6199
79.6089
77.7318
75.9745
74.3246
72.7705
71.3018
69.9092
68.5838
67.3169
66.0979
64.9098
63.7114
62.3854
60.596
57.5462
52.542
111.719
110.341
108.995
107.484
105.576
103.126
100.214
97.063
93.889
90.838
87.9809
85.3384
83.0952
81.0228
79.09
77.2834
75.59
73.9981
72.4969
71.0769
69.7287
68.4439
67.2139
66.0284
64.8692
63.6936
62.3806
60.5918
57.5452
52.626
108.867
107.722
106.632
105.378
103.71
101.475
98.7544
95.7712
92.7454
89.8247
87.0823
84.5444
82.4158
80.4295
78.5742
76.8375
75.2076
73.6736
72.2254
70.8539
69.5505
68.3066
67.1142
65.9623
64.8325
63.6798
62.3799
60.5916
57.549
52.7151
106.125
105.192
104.34
103.327
101.885
99.8554
97.3178
94.4971
91.615
88.8211
86.1907
83.775
81.7414
79.8402
78.0615
76.3943
74.8276
73.3514
71.9564
70.6335
69.3748
68.1725
67.0178
65.9
64.7997
63.6701
62.3833
60.5958
57.558
52.8096
103.483
102.748
102.117
101.328
100.1
98.2655
95.9036
93.2398
90.4972
87.8268
85.3058
83.0122
81.0721
79.2549
77.5521
75.9538
74.45
73.0315
71.6894
70.4157
69.2021
68.0413
66.9249
65.8416
64.7713
63.665
62.3913
60.6046
57.5725
52.9098
100.937
100.383
99.956
99.3776
98.352
96.7037
94.5107
91.9985
89.3912
86.8413
84.4274
82.2558
80.4079
78.6736
77.046
75.5162
74.0751
72.7143
71.4253
70.2005
69.0325
67.9137
66.8358
65.7876
64.7474
63.6645
62.404
60.6185
57.5929
53.0162
98.4781
98.0922
97.8552
97.4739
96.6391
95.1687
93.138
90.7724
88.2967
85.8642
83.5551
81.5059
79.7488
78.0966
76.5435
75.0817
73.7032
72.3998
71.164
69.9885
68.8662
67.7898
66.7509
65.7378
64.7283
63.6691
62.4219
60.6378
57.6196
53.1292
96.1021
95.8715
95.8108
95.6139
94.9599
93.6592
91.7845
89.5607
87.2129
84.8951
82.6887
80.7625
79.0949
77.5239
76.0447
74.6506
73.3342
72.0883
70.9059
69.7798
68.7035
67.6697
66.6703
65.693
64.7143
63.679
62.4451
60.6627
57.653
53.2492
93.8032
93.7166
93.8195
93.7955
93.3123
92.1737
90.4492
88.3628
86.1394
83.9337
81.8279
80.0258
78.4466
76.9559
75.55
74.2232
72.9689
71.7803
70.6511
69.5747
68.5446
67.554
66.5943
65.6531
64.7057
63.6945
62.4741
60.6937
57.6935
53.3766
91.5762
91.6232
91.8784
92.0163
91.6949
90.711
89.1311
87.1779
85.0757
82.9795
80.9725
79.296
77.8041
76.3929
75.0598
73.7998
72.6074
71.4762
70.4004
69.3738
68.3902
67.4428
66.5233
65.6186
64.7028
63.7159
62.5092
60.7314
57.7415
53.512
89.4164
89.5876
89.9845
90.2743
90.1059
89.27
87.8294
86.0052
84.0212
82.0323
80.1225
78.5734
77.1678
75.8353
74.5745
73.3812
72.2503
71.1764
70.154
69.1772
68.2403
67.3367
66.4577
65.5897
64.7059
63.7436
62.5508
60.7758
57.7977
53.6559
87.3192
87.6063
88.1351
88.5674
88.544
87.8495
86.5432
84.8443
82.9755
81.0919
79.2777
77.8586
76.5382
75.2838
74.0947
72.9676
71.8981
70.8814
69.9123
68.9856
68.0956
67.236
66.3977
65.567
64.7153
63.7779
62.5992
60.8278
57.8624
53.8087
85.2805
85.6757
86.3277
86.8938
87.0077
86.4484
85.2716
83.6944
81.9384
80.158
78.44
77.1521
75.9161
74.7391
73.6213
72.5601
71.5517
70.5921
69.6763
68.7995
67.9566
67.141
66.3438
65.5506
64.7315
63.819
62.6547
60.8875
57.9361
53.9712
83.2961
83.7926
84.5597
85.2515
85.4956
85.0657
84.014
82.5551
80.9094
79.2306
77.6515
76.4548
75.3024
74.2022
73.155
72.1593
71.2119
70.3089
69.4464
68.6197
67.8237
67.0523
66.2964
65.5409
64.7545
63.8675
62.7178
60.9554
58.0195
54.1439
81.3618
81.9537
82.8288
83.639
84.0065
83.7005
82.7696
81.426
79.8884
78.3098
76.8744
75.7679
74.6983
73.6741
72.6972
71.7665
70.8795
70.0331
69.2234
68.4466
67.6976
66.9704
66.2559
65.5384
64.7849
63.9233
62.7888
61.032
58.1131
54.3274
79.4736
80.1559
81.1327
82.0546
82.5394
82.3521
81.5381
80.3069
78.8755
77.3959
76.1103
75.0929
74.1052
73.1563
72.249
71.3828
70.5558
69.7653
69.0084
68.2809
67.5788
66.8957
66.2227
65.5431
64.8229
63.9871
62.8679
61.1177
58.2174
54.5224
77.6275
78.396
79.4691
80.4969
81.0933
81.0199
80.319
79.1977
77.871
76.4895
75.361
74.4318
73.525
72.6506
71.8121
71.0098
70.242
69.507
68.8021
68.1237
67.468
66.8289
66.1972
65.5555
64.8686
64.0587
62.9555
61.213
58.3331
54.7299
75.8192
76.671
77.8362
78.9646
79.6676
79.7036
79.1125
78.099
76.8756
75.5919
74.6292
73.787
72.9602
72.1593
71.3887
70.6491
69.9399
69.2595
68.6059
67.976
67.3661
66.7704
66.1797
65.5759
64.9221
64.1385
63.0519
61.3181
58.4607
54.9504
74.0439
74.9774
76.2319
77.4571
78.2621
78.4035
77.9192
77.0116
75.891
74.7048
73.9183
73.1618
72.4138
71.6852
70.9812
70.3033
69.6513
69.0243
68.4209
67.8386
67.2738
66.721
66.1708
65.6044
64.9837
64.2263
63.1568
61.4335
58.601
55.1852
72.2977
73.3127
74.6551
75.9742
76.8775
77.1207
76.7406
75.9376
74.9194
73.8812
73.2332
72.5607
71.8896
71.2319
70.5928
69.9749
69.3785
68.8036
68.2491
67.713
67.1922
66.6812
66.1707
65.6413
65.0533
64.3222
63.2704
61.5592
58.7545
55.4353
70.5717
71.6718
73.1039
74.5164
75.5156
75.8577
75.5799
74.8808
73.9654
73.1388
72.5799
71.9893
71.3931
70.8038
70.2275
69.6675
69.1249
68.6001
68.0927
67.6011
67.1227
66.6524
66.1804
65.6868
65.1309
64.4259
63.3925
61.6953
58.9217
55.7021
68.8674
70.0568
71.582
73.088
74.1808
74.6189
74.4414
73.8461
73.0344
72.4399
71.967
71.4552
70.9309
70.4071
69.8908
69.3859
68.8944
68.4173
67.9546
67.5055
67.0675
66.6359
66.2008
65.7418
65.2167
64.5371
63.5225
61.8414
59.1031
55.9868
67.153
68.4508
70.084
71.6917
72.8801
73.4141
73.3373
72.8472
72.1418
71.7966
71.4061
70.9693
70.5128
70.051
69.591
69.1378
68.6941
68.2615
67.8406
67.4312
67.031
66.6355
66.2346
65.8078
65.3117
64.6562
63.66
61.9971
59.2988
56.2917
65.4758
66.8919
68.6394
70.3485
71.628
72.2526
72.2738
71.8895
71.4396
71.2293
70.914
70.5455
70.1511
69.7454
69.3368
68.9307
68.5305
68.1384
67.7556
67.3821
67.0162
66.6534
66.2838
65.886
65.4158
64.7821
63.8036
62.1604
59.5072
56.6155
63.6624
65.2843
67.2138
69.0628
70.452
71.1775
71.3057
71.036
70.8938
70.7596
70.5137
70.2077
69.8693
69.5139
69.1507
68.786
68.4238
68.0668
67.7166
67.3739
67.0371
66.7018
66.358
65.9839
65.5346
64.918
63.9537
62.3299
59.7275
56.9633
62.0889
63.8939
65.9606
67.9061
69.3694
70.1742
70.4001
70.3891
70.5115
70.4303
70.2343
69.974
69.6774
69.36
69.0318
68.6992
68.3669
68.0379
67.714
67.3959
67.0826
66.7694
66.4462
66.091
65.658
65.0545
64.1018
62.4973
59.9484
57.3128
59.6942
62.1738
64.718
66.9395
68.5766
69.526
69.9027
70.1406
70.3104
70.2772
70.1243
69.9015
69.6374
69.3485
69.045
68.7344
68.4213
68.1095
67.8013
67.4976
67.1971
66.8958
66.5831
66.2362
65.8087
65.2075
64.2565
62.6652
60.1749
57.6963
59.0258
61.4868
63.9165
66.1144
67.7956
68.8885
69.735
70.2056
70.3468
70.2903
70.1213
69.8887
69.6196
69.3296
69.0284
68.7222
68.4156
68.1115
67.8119
67.5175
67.227
66.9358
66.6332
66.2961
65.8779
65.286
64.3468
62.7784
60.3415
57.9715
54.2152
60.086
64.022
66.7436
68.6381
69.7909
70.3641
70.5836
70.6053
70.4984
70.3108
70.0749
69.8099
69.5273
69.2346
68.9369
68.638
68.341
68.0475
67.7581
67.471
67.1814
66.8773
66.5347
66.105
65.4955
64.5373
62.9691
60.6003
58.4216
55.3788
60.3508
64.007
66.6667
68.5137
69.6636
70.3045
70.5979
70.6482
70.5496
70.3665
70.1358
69.8773
69.6021
69.3175
69.0283
68.7381
68.4493
68.1636
67.8808
67.5988
67.312
67.0075
66.6601
66.2199
65.5931
64.6116
63.0229
60.667
58.607
58.3285
60.0378
62.3921
64.8645
66.955
68.4212
69.268
69.6399
69.7091
69.6186
69.4729
69.316
69.1405
68.9434
68.7282
68.4995
68.262
68.0192
67.7737
67.5267
67.2776
67.0215
66.7472
66.431
66.0248
65.4362
64.4975
62.9524
60.6372
58.6434
58.3982
59.9875
62.0569
64.2629
66.202
67.6285
68.5025
68.9298
69.0737
69.1192
69.0959
69.0077
68.8756
68.7136
68.5305
68.3326
68.1243
67.9097
67.6911
67.4699
67.245
67.0119
66.7592
66.4628
66.0742
65.4995
64.5686
63.0225
60.707
58.7616
59.0692
60.1527
61.8384
63.8117
65.6511
67.0764
68.0017
68.4937
68.6798
68.6798
68.6224
68.5671
68.469
68.3406
68.1906
68.0251
67.8483
67.664
67.4747
67.2817
67.084
66.8774
66.6505
66.3793
66.0148
65.4621
64.5481
63.0104
60.6985
58.7855
59.3208
60.2285
61.714
63.5335
65.2825
66.6766
67.6126
68.1356
68.3584
68.3931
68.37
68.3276
68.2423
68.1285
67.9949
67.8468
67.6884
67.523
67.353
67.1792
67.0008
66.8132
66.6051
66.3518
66.0039
65.4642
64.557
63.0155
60.6969
58.812
59.5623
60.3389
61.6679
63.3656
65.0414
66.4067
67.346
67.8899
68.1396
68.2013
68.1722
68.1371
68.0609
67.9581
67.8368
67.7023
67.5583
67.408
67.2533
67.0952
66.9327
66.7609
66.5683
66.3299
65.9949
65.4647
64.56
63.0112
60.6838
58.8229
59.7249
60.4268
61.6472
63.2547
64.8741
66.214
67.1515
67.7074
67.9755
68.0567
68.0428
68.0111
67.9405
67.8449
67.7322
67.6074
67.4742
67.3352
67.1922
67.0462
66.8959
66.7362
66.5553
66.3275
66.0012
65.4757
64.5686
63.0096
60.6738
58.8347
59.8583
60.5073
61.6452
63.182
64.7576
66.0772
67.0118
67.5755
67.8561
67.9521
67.9505
67.9207
67.8537
67.7636
67.6578
67.5408
67.4161
67.2863
67.1529
67.0168
66.8762
66.7261
66.5542
66.3343
66.0136
65.4896
64.5801
63.02
60.6651
58.8466
59.9652
60.5769
61.6504
63.131
64.6727
65.977
66.9093
67.4784
67.7683
67.8747
67.887
67.8578
67.7933
67.707
67.6064
67.4957
67.378
67.2557
67.1302
67.002
66.8693
66.7269
66.5619
66.3475
66.0301
65.5052
64.6054
63.0235
60.6542
58.8608
60.0554
60.6385
61.6597
63.0938
64.6088
65.9022
66.8336
67.4072
67.7039
67.8183
67.8431
67.8137
67.7505
67.6671
67.5706
67.4648
67.3529
67.2368
67.1178
66.9962
66.8701
66.7337
66.574
66.3636
66.0477
65.5373
64.6242
63.0222
60.6422
58.8765
60.1325
60.693
61.6706
63.065
64.5585
65.8446
66.7767
67.3547
67.657
67.7848
67.8137
67.7836
67.721
67.6396
67.546
67.4443
67.337
67.226
67.1124
66.9962
66.8754
66.7439
66.5882
66.3806
66.0777
65.5645
64.6379
63.0176
60.6298
58.8937
60.1998
60.742
61.682
63.0417
64.5173
65.799
66.7333
67.3171
67.6337
67.7677
67.7949
67.7638
67.7013
67.621
67.5297
67.4311
67.3276
67.2208
67.1116
66.9999
66.8833
66.7557
66.6032
66.4065
66.1072
65.5867
64.6476
63.0106
60.6176
58.9116
60.2594
60.7861
61.6932
63.0219
64.4821
65.7615
66.7122
67.308
67.6252
67.7585
67.7842
67.7521
67.6892
67.6095
67.5198
67.4235
67.3229
67.2194
67.1139
67.0058
66.8928
66.7684
66.6252
66.4354
66.1328
65.6054
64.6543
63.0018
60.6056
58.9299
60.3126
60.8265
61.7042
63.0046
64.4513
65.7474
66.7027
67.3026
67.6218
67.7549
67.7797
67.7463
67.683
67.6034
67.5147
67.4202
67.3219
67.2212
67.1185
67.0136
66.9033
66.7871
66.6518
66.4608
66.155
65.6209
64.6585
62.9918
60.5937
58.948
60.3607
60.8636
61.7147
62.9889
64.4343
65.7333
66.6946
67.2998
67.6218
67.7557
67.7799
67.7456
67.6814
67.6018
67.5137
67.4204
67.3238
67.2252
67.125
67.0224
66.9195
66.8106
66.6755
66.4835
66.1744
65.6339
64.6607
62.9806
60.5819
58.9659
60.4045
60.898
61.7249
62.9746
64.4178
65.7188
66.687
67.2987
67.6246
67.7598
67.7838
67.7485
67.6836
67.6037
67.5159
67.4234
67.3282
67.2313
67.1329
67.0363
66.9401
66.8322
66.6971
66.5038
66.1915
65.6448
64.6613
62.9685
60.5703
58.9832
60.4447
60.9301
61.7347
62.9615
64.4006
65.704
66.6797
67.2986
67.6291
67.7664
67.7904
67.7546
67.6889
67.6086
67.5209
67.4289
67.3346
67.2389
67.1445
67.0542
66.9592
66.852
66.7168
66.5222
66.2068
65.6542
64.6605
62.9557
60.5587
58.9999
60.4819
60.9601
61.7443
62.9531
64.3828
65.6887
66.6723
67.2992
67.635
67.7748
67.7993
67.763
67.6966
67.6159
67.528
67.4363
67.3427
67.2479
67.1603
67.0714
66.9773
66.8705
66.7351
66.5392
66.2206
65.6621
64.6585
62.9423
60.5471
59.0159
60.5165
60.9886
61.7535
62.9445
64.3646
65.673
66.6648
67.3001
67.6418
67.7845
67.81
67.7734
67.7066
67.6252
67.537
67.4455
67.3523
67.2619
67.1758
67.0879
66.9945
66.8879
66.7521
66.5548
66.2333
65.6688
64.6556
62.9282
60.5356
59.0312
60.5489
61.0155
61.7627
62.9356
64.3461
65.6568
66.6571
67.3011
67.6492
67.7953
67.822
67.7854
67.718
67.6362
67.5476
67.456
67.363
67.2764
67.1912
67.1039
67.0111
66.9047
66.7682
66.5695
66.2448
65.6747
64.6519
62.9137
60.5242
59.0459
60.5795
61.0413
61.7716
62.9267
64.3274
65.6402
66.649
67.3021
67.6569
67.8068
67.8351
67.7986
67.7308
67.6485
67.5597
67.4679
67.3749
67.2911
67.2064
67.1197
67.027
66.9206
66.7837
66.5833
66.2556
65.6796
64.6475
62.8989
60.5129
59.06
60.6084
61.0659
61.7806
62.9177
64.3087
65.6233
66.6405
67.3029
67.6647
67.8188
67.8489
67.8129
67.7448
67.6619
67.5726
67.4806
67.3893
67.3059
67.2216
67.1351
67.0428
66.9361
66.7985
66.5966
66.2657
65.6839
64.6423
62.8839
60.5017
59.0735
60.636
61.0897
61.7894
62.909
64.2901
65.6062
66.6318
67.3035
67.6726
67.8311
67.8633
67.8279
67.7596
67.6763
67.5866
67.4943
67.404
67.3207
67.2367
67.1505
67.0581
66.9511
66.8128
66.6093
66.2752
65.6876
64.6367
62.8685
60.4906
59.0864
60.6623
61.1127
61.7983
62.9005
64.2716
65.5889
66.6226
67.3038
67.6804
67.8437
67.878
67.8434
67.775
67.6913
67.6013
67.5086
67.419
67.3358
67.252
67.1657
67.0732
66.9659
66.8267
66.6215
66.2842
65.6907
64.6306
62.853
60.4796
59.0989
60.6875
61.1349
61.8072
62.8922
64.2531
65.5714
66.6131
67.3038
67.6881
67.8562
67.8931
67.8594
67.791
67.707
67.6166
67.5236
67.4343
67.3511
67.2671
67.1809
67.0882
66.9805
66.8404
66.6334
66.2928
65.6934
64.6242
62.8374
60.4689
59.1109
60.7118
61.1564
61.8162
62.8843
64.235
65.5538
66.6031
67.3034
67.6956
67.8688
67.9084
67.8756
67.8073
67.7231
67.6322
67.539
67.4497
67.3664
67.2824
67.196
67.103
66.9948
66.8537
66.6449
66.301
65.6958
64.6174
62.8217
60.4584
59.1225
60.7352
61.1775
61.8252
62.8767
64.2171
65.536
66.5929
67.3026
67.7028
67.8813
67.9238
67.8921
67.8241
67.7396
67.6483
67.5547
67.4653
67.3819
67.2977
67.2111
67.1178
67.009
66.8668
66.6563
66.3089
65.6978
64.6103
62.806
60.4481
59.1338
60.758
61.1981
61.8343
62.8696
64.1995
65.5183
66.5825
67.3014
67.7097
67.8937
67.9391
67.9087
67.841
67.7563
67.6647
67.5708
67.4811
67.3975
67.313
67.2261
67.1324
67.023
66.8798
66.6673
66.3165
65.6995
64.603
62.7902
60.4381
59.1448
60.78
61.2182
61.8436
62.8628
64.1821
65.5005
66.5716
67.3
67.7164
67.9059
67.9544
67.9254
67.858
67.7733
67.6813
67.5869
67.497
67.4131
67.3283
67.2412
67.147
67.0369
66.8925
66.6781
66.3239
65.7009
64.5954
62.7745
60.4283
59.1556
60.8015
61.2379
61.8528
62.8565
64.1652
65.4828
66.5606
67.2981
67.7228
67.9179
67.9695
67.9421
67.8751
67.7902
67.6981
67.6034
67.5129
67.4287
67.3437
67.2561
67.1615
67.0507
66.9053
66.6888
66.3311
65.7021
64.5876
62.7588
60.4187
59.1661
60.8225
61.2572
61.8622
62.8505
64.1487
65.4651
66.5493
67.296
67.7286
67.9296
67.9846
67.9587
67.8923
67.8074
67.7149
67.6198
67.529
67.4444
67.3591
67.2711
67.1759
67.0644
66.9177
66.6993
66.3381
65.703
64.5797
62.7432
60.4095
59.1764
60.8429
61.2762
61.8717
62.8451
64.1324
65.4475
66.5377
67.2934
67.7343
67.9411
67.9996
67.9753
67.9094
67.8245
67.7318
67.6365
67.545
67.46
67.3743
67.286
67.1903
67.078
66.9301
66.7097
66.3449
65.7037
64.5717
62.7277
60.4005
59.1865
60.8628
61.295
61.8813
62.8399
64.1165
65.4299
66.526
67.2905
67.7396
67.9523
68.0143
67.9917
67.9265
67.8417
67.7488
67.6531
67.561
67.4758
67.3897
67.3008
67.2046
67.0915
66.9424
66.7199
66.3516
65.7044
64.5635
62.7124
60.3918
59.1964
60.8824
61.3134
61.8911
62.8352
64.1011
65.4124
66.5141
67.2873
67.7445
67.9633
68.0288
68.0081
67.9435
67.8588
67.7657
67.6697
67.5771
67.4914
67.405
67.3156
67.2189
67.105
66.9546
66.7301
66.3581
65.7048
64.5552
62.6972
60.3834
59.2062
60.9015
61.3315
61.9008
62.831
64.0861
65.3952
66.502
67.2837
67.7492
67.9738
68.0431
68.0243
67.9604
67.8758
67.7826
67.6863
67.5932
67.5071
67.4202
67.3304
67.233
67.1184
66.9668
66.7401
66.3645
65.705
64.5468
62.6821
60.3753
59.2159
60.9204
61.3494
61.9107
62.8271
64.0715
65.3781
66.4897
67.2798
67.7534
67.9842
68.0572
68.0403
67.9773
67.8928
67.7994
67.7028
67.6091
67.5227
67.4354
67.3452
67.2473
67.1317
66.9788
66.7499
66.3708
65.7052
64.5385
62.6671
60.3674
59.2254
60.9388
61.3671
61.9206
62.8236
64.0573
65.361
66.4773
67.2757
67.7574
67.9942
68.0711
68.0561
67.994
67.9096
67.8162
67.7195
67.6251
67.5383
67.4506
67.3598
67.2613
67.1449
66.9908
66.7598
66.3769
65.7052
64.53
62.6523
60.3599
59.2349
60.957
61.3845
61.9306
62.8205
64.0433
65.3441
66.4648
67.2713
67.761
68.004
68.0847
68.0719
68.0105
67.9265
67.8329
67.7358
67.641
67.5538
67.4656
67.3745
67.2753
67.1582
67.0027
66.7696
66.3829
65.7051
64.5214
62.6377
60.3526
59.2442
60.9748
61.4017
61.9407
62.8178
64.03
65.3274
66.4522
67.2666
67.7643
68.0134
68.0981
68.0873
68.0269
67.9431
67.8495
67.7522
67.6567
67.5692
67.4807
67.389
67.2893
67.1713
67.0146
66.7792
66.3888
65.7049
64.5128
62.6232
60.3456
59.2535
60.9924
61.4188
61.9509
62.8155
64.0169
65.311
66.4396
67.2616
67.7673
68.0226
68.1112
68.1027
68.0432
67.9598
67.866
67.7686
67.6725
67.5846
67.4957
67.4035
67.3031
67.1843
67.0262
66.7887
66.3946
65.7046
64.5042
62.6088
60.339
59.2628
61.0097
61.4356
61.9611
62.8135
64.0042
65.2947
66.4269
67.2564
67.7699
68.0314
68.1242
68.1178
68.0594
67.9762
67.8824
67.7848
67.6882
67.6
67.5105
67.418
67.317
67.1973
67.0379
66.7982
66.4004
65.7042
64.4955
62.5948
60.3325
59.2719
61.0267
61.4522
61.9714
62.8118
63.9919
65.2785
66.4141
67.2509
67.7723
68.04
68.1367
68.1327
68.0753
67.9925
67.8988
67.8009
67.7039
67.6151
67.5254
67.4323
67.3308
67.2102
67.0495
66.8076
66.4059
65.7036
64.4868
62.5808
60.3263
59.281
61.0435
61.4687
61.9817
62.8104
63.98
65.2626
66.4012
67.2453
67.7743
68.0484
68.1492
68.1473
68.0911
68.0087
67.915
67.8169
67.7193
67.6303
67.5402
67.4466
67.3444
67.223
67.061
66.8169
66.4114
65.703
64.4782
62.567
60.3205
59.2901
61.0601
61.485
61.9921
62.8094
63.9685
65.2469
66.3884
67.2394
67.7761
68.0563
68.1613
68.1619
68.1068
68.0247
67.931
67.8329
67.7347
67.6454
67.5549
67.4608
67.3581
67.2358
67.0724
66.8261
66.4168
65.7022
64.4695
62.5534
60.3148
59.299
61.0764
61.5011
62.0025
62.8086
63.9572
65.2314
66.3754
67.2334
67.7776
68.0641
68.1733
68.1762
68.1223
68.0406
67.947
67.8487
67.7502
67.6604
67.5695
67.4749
67.3716
67.2485
67.0838
66.8352
66.4222
65.7014
64.4608
62.54
60.3094
59.308
61.0925
61.5171
62.013
62.8082
63.9464
65.2161
66.3625
67.2271
67.7789
68.0715
68.185
68.1903
68.1376
68.0564
67.9628
67.8644
67.7653
67.6753
67.584
67.489
67.3852
67.2611
67.0951
66.8443
66.4273
65.7005
64.452
62.5267
60.3043
59.317
61.1084
61.5328
62.0235
62.808
63.9359
65.201
66.3497
67.2206
67.7799
68.0787
68.1964
68.2043
68.1528
68.0721
67.9786
67.8801
67.7805
67.6902
67.5984
67.503
67.3985
67.2738
67.1064
66.8532
66.4325
65.6995
64.4433
62.5136
60.2994
59.3259
61.1241
61.5485
62.034
62.8082
63.9259
65.1861
66.3368
67.214
67.7806
68.0856
68.2077
68.218
68.1678
68.0876
67.9941
67.8955
67.7956
67.7049
67.6128
67.517
67.4119
67.2862
67.1175
66.8621
66.4375
65.6985
64.4345
62.5007
60.2946
59.3348
61.1396
61.564
62.0446
62.8085
63.916
65.1714
66.3238
67.2072
67.781
68.0923
68.2187
68.2316
68.1826
68.103
68.0097
67.911
67.8106
67.7195
67.6271
67.5308
67.4252
67.2986
67.1286
66.8709
66.4424
65.6973
64.4258
62.488
60.2902
59.3437
61.1549
61.5793
62.0552
62.8095
63.9065
65.157
66.3109
67.2003
67.7813
68.0987
68.2294
68.245
68.1973
68.1183
68.025
67.9262
67.8256
67.7341
67.6414
67.5447
67.4385
67.3111
67.1396
66.8796
66.4472
65.696
64.4171
62.4755
60.286
59.3526
61.1701
61.5946
62.0658
62.8107
63.8974
65.1428
66.2981
67.1931
67.7813
68.1049
68.2399
68.2582
68.2118
68.1334
68.0402
67.9414
67.8406
67.7487
67.6555
67.5584
67.4515
67.3233
67.1505
66.8882
66.452
65.6946
64.4083
62.4631
60.282
59.3614
61.185
61.6096
62.0764
62.8122
63.8886
65.1288
66.2852
67.186
67.7811
68.1108
68.2503
68.2712
68.2263
68.1483
68.0554
67.9565
67.8555
67.7631
67.6696
67.5721
67.4646
67.3355
67.1614
66.8968
66.4567
65.6932
64.3996
62.451
60.2783
59.3703
61.1998
61.6245
62.087
62.8139
63.88
65.115
66.2725
67.1786
67.7806
68.1165
68.2603
68.284
68.2405
68.1632
68.0704
67.9714
67.8704
67.7774
67.6837
67.5856
67.4777
67.3478
67.1722
66.9053
66.4613
65.6918
64.3909
62.4389
60.2747
59.3791
61.2144
61.6393
62.0977
62.8157
63.8719
65.1014
66.2596
67.1711
67.78
68.1219
68.2703
68.2966
68.2545
68.1779
68.0854
67.9864
67.8851
67.7917
67.6975
67.5992
67.4906
67.3599
67.1829
66.9137
66.4657
65.6902
64.3821
62.427
60.2713
59.3879
61.2288
61.654
62.1083
62.8177
63.8638
65.0881
66.247
67.1636
67.7792
68.1272
68.2799
68.3091
68.2685
68.1925
68.1001
68.0011
67.8997
67.8058
67.7114
67.6126
67.5035
67.372
67.1936
66.9221
66.4701
65.6887
64.3734
62.4154
60.2681
59.3967
61.2431
61.6685
62.1189
62.82
63.8563
65.0749
66.2343
67.1558
67.778
68.1322
68.2894
68.3214
68.2823
68.207
68.1149
68.0158
67.9143
67.8199
67.7252
67.626
67.5163
67.3839
67.2042
66.9303
66.4744
65.6869
64.3647
62.4039
60.2651
59.4056
61.2572
61.6829
62.1297
62.8225
63.8489
65.062
66.2217
67.148
67.7769
68.137
68.2987
68.3334
68.2959
68.2213
68.1295
68.0303
67.9287
67.8339
67.7389
67.6393
67.5292
67.3958
67.2147
66.9384
66.4786
65.6851
64.3561
62.3925
60.2624
59.4144
61.2712
61.6972
62.1403
62.825
63.8418
65.0493
66.2092
67.1401
67.7754
68.1416
68.3078
68.3454
68.3095
68.2355
68.1439
68.0449
67.9431
67.8479
67.7526
67.6526
67.5418
67.4077
67.2252
66.9466
66.4828
65.6833
64.3474
62.3813
60.2598
59.4232
61.285
61.7113
62.151
62.8278
63.8351
65.0368
66.1967
67.1322
67.7738
68.1459
68.3167
68.3571
68.3228
68.2496
68.1583
68.0593
67.9574
67.8618
67.7661
67.6657
67.5544
67.4194
67.2356
66.9545
66.4868
65.6814
64.3388
62.3702
60.2575
59.432
61.2986
61.7253
62.1616
62.8307
63.8285
65.0245
66.1843
67.1241
67.772
68.1501
68.3253
68.3687
68.336
68.2637
68.1726
68.0735
67.9716
67.8756
67.7796
67.6788
67.5669
67.4312
67.246
66.9625
66.4908
65.6794
64.3302
62.3594
60.2552
59.4408
61.3122
61.7393
62.1722
62.8338
63.8222
65.0124
66.1719
67.116
67.77
68.1541
68.3338
68.3801
68.3491
68.2775
68.1867
68.0878
67.9857
67.8893
67.793
67.6919
67.5795
67.4428
67.2561
66.9703
66.4947
65.6774
64.3216
62.3487
60.2532
59.4496
61.3256
61.7531
62.1829
62.8369
63.8161
65.0006
66.1596
67.1078
67.7679
68.1578
68.3421
68.3915
68.362
68.2913
68.2008
68.1018
67.9997
67.903
67.8065
67.7048
67.5919
67.4544
67.2663
66.9782
66.4984
65.6752
64.313
62.3382
60.2513
59.4584
61.3388
61.7668
62.1935
62.8403
63.8104
64.9889
66.1475
67.0995
67.7655
68.1614
68.3503
68.4025
68.3749
68.3049
68.2148
68.1159
68.0136
67.9165
67.8197
67.7178
67.6043
67.4659
67.2765
66.9859
66.5021
65.6731
64.3045
62.3278
60.2495
59.4673
61.3519
61.7804
62.2041
62.8438
63.8048
64.9775
66.1354
67.0911
67.7632
68.1648
68.3582
68.4135
68.3875
68.3185
68.2287
68.1299
68.0275
67.93
67.8329
67.7307
67.6166
67.4774
67.2866
66.9935
66.5058
65.6709
64.296
62.3176
60.248