4.545454545e-05 	1.892424236e-05 	4.634755814e-07 	4.184106102e-12
6.060606061e-05 	4.892899994e-05 	1.19831025e-06 	1.081776177e-11
7.575757576e-05 	7.893375173e-05 	1.93314472e-06 	1.74514188e-11
9.090909091e-05 	0.0001272020899 	1.102556862e-06 	2.105951853e-11
0.0001060606061 	0.0001959232255 	-1.480301918e-06 	2.12808436e-11
0.0001212121212 	0.0002646443516 	-4.06316195e-06 	2.150216805e-11
0.0001363636364 	0.0003475766988 	-7.648689867e-06 	2.177515551e-11
0.0001515151515 	0.0004617372161 	-1.3436566e-05 	2.216198923e-11
0.0001666666667 	0.0005758977248 	-1.922444287e-05 	2.254882257e-11
0.0001818181818 	0.0006984022353 	-2.550831917e-05 	2.297483426e-11
0.000196969697 	0.0008668235973 	-3.451978407e-05 	2.361556132e-11
0.0002121212121 	0.001035244948 	-4.353125072e-05 	2.425628815e-11
0.0002272727273 	0.001203666291 	-5.254271865e-05 	2.48970148e-11
0.0002424242424 	0.001437078052 	-6.418668755e-05 	2.525613753e-11
0.0002575757576 	0.001670829514 	-7.584416964e-05 	2.561371751e-11
0.0002727272727 	0.001904580965 	-8.750165263e-05 	2.597129748e-11
0.0002878787879 	0.002204695066 	-0.0001007330396 	2.6167142e-11
0.000303030303 	0.002517844344 	-0.0001142733322 	2.633095834e-11
0.0003181818182 	0.002830993598 	-0.0001278136281 	2.649477526e-11
0.0003333333333 	0.003209737849 	-0.0001419625409 	2.60115876e-11
0.0003484848485 	0.003619799433 	-0.0001564017829 	2.521969367e-11
0.0003636363636 	0.004029860981 	-0.0001708410298 	2.44277999e-11
0.0003787878788 	0.004500953122 	-0.0001851505397 	2.393665327e-11
0.0003939393939 	0.005028863223 	-0.000199339024 	2.372595287e-11
0.0004090909091 	0.005556773274 	-0.0002135275137 	2.351525167e-11
0.0004242424242 	0.006135524486 	-0.0002272022117 	2.427079777e-11
0.0004393939394 	0.006805093937 	-0.0002399588729 	2.67524563e-11
0.0004545454545 	0.007474663347 	-0.0002527155363 	2.923411428e-11
0.0004696969697 	0.008177710409 	-0.0002649739844 	3.143698121e-11
0.0004848484848 	0.009014734174 	-0.0002752383277 	3.252329927e-11
0.0005 	0.009851757909 	-0.0002855026753 	3.360961717e-11
0.0005151515152 	0.01069673814 	-0.0002956312776 	3.46274742e-11
0.0005303030303 	0.01172808509 	-0.000302579732 	3.404714605e-11
0.0005454545455 	0.01275943199 	-0.0003095281879 	3.346681768e-11
0.0005606060606 	0.01379077885 	-0.0003164766453 	3.288648904e-11
0.0005757575758 	0.01501755538 	-0.0003200301 	3.325075417e-11
0.0005909090909 	0.01627048581 	-0.0003231292168 	3.374113313e-11
0.0006060606061 	0.01752341618 	-0.0003262283386 	3.423151209e-11
0.0006212121212 	0.01895624389 	-0.0003263669559 	3.406918611e-11
0.0006363636364 	0.02045799789 	-0.0003253713166 	3.365672261e-11
0.0006515151515 	0.02195975178 	-0.0003243756834 	3.324425922e-11
0.0006666666667 	0.0236170558 	-0.0003210780887 	3.273916112e-11
0.0006818181818 	0.02539460073 	-0.0003160011473 	3.21628918e-11
0.000696969697 	0.02717214555 	-0.0003109242131 	3.158662152e-11
0.0007121212121 	0.0290721161 	-0.0003042914817 	3.139001628e-11
0.0007272727273 	0.03115191872 	-0.0002953735776 	3.175113245e-11
0.0007424242424 	0.03323172121 	-0.0002864556768 	3.211224818e-11
0.0007575757576 	0.03539221807 	-0.0002767012084 	3.228469307e-11
0.0007727272727 	0.03779996599 	-0.0002643837608 	3.187872147e-11
0.0007878787879 	0.04020771383 	-0.0002520663177 	3.147274948e-11
0.000803030303 	0.04264615966 	-0.0002395067845 	3.110013225e-11
0.0008181818182 	0.04540642068 	-0.0002244103301 	3.107670327e-11
0.0008333333333 	0.04816668163 	-0.0002093138774 	3.105327421e-11
0.0008484848485 	0.05092694251 	-0.0001942174265 	3.102984508e-11
0.0008636363636 	0.05403578193 	-0.0001772616384 	3.28925089e-11
0.0008787878788 	0.0571716232 	-0.0001601619283 	3.490088576e-11
0.0008939393939 	0.06030746436 	-0.0001430622222 	3.690926335e-11
0.0009090909091 	0.06374846073 	-0.0001251144019 	3.661948745e-11
0.0009242424242 	0.06728105605 	-0.0001069121425 	3.563996613e-11
0.0009393939394 	0.07081365118 	-8.87098882e-05 	3.466044543e-11
0.0009545454545 	0.07459986048 	-7.043693127e-05 	3.165670313e-11
0.0009696969697 	0.07854811297 	-5.211898887e-05 	2.73609227e-11
0.0009848484848 	0.08249636526 	-3.380105166e-05 	2.306513952e-11
0.001 	0.08663950371 	-1.589338148e-05 	2.063550484e-11
0.001015151515 	0.09101970855 	1.514957405e-06 	2.04766617e-11
0.00103030303 	0.09539991311 	1.892329356e-05 	2.031781664e-11
0.001045454545 	0.09991025655 	3.57714951e-05 	2.064133076e-11
0.001060606061 	0.1047358406 	5.126243771e-05 	2.213170454e-11
0.001075757576 	0.1095614245 	6.675337766e-05 	2.362207683e-11
0.001090909091 	0.1144477355 	8.186524926e-05 	2.476772664e-11
0.001106060606 	0.1197291584 	9.450984554e-05 	2.366667604e-11
0.001121212121 	0.1250105812 	0.0001071544409 	2.256562559e-11
0.001136363636 	0.1302920038 	0.0001197990354 	2.146457527e-11
0.001151515152 	0.1360251496 	0.0001289020712 	1.968756438e-11
0.001166666667 	0.1417702375 	0.0001379113506 	1.789213187e-11
0.001181818182 	0.1475153253 	0.0001469206283 	1.609670112e-11
0.001196969697 	0.153644074 	0.0001524896125 	1.094840131e-11
0.001212121212 	0.1598597575 	0.0001572789076 	5.040529553e-12
0.001227272727 	0.1660754408 	0.0001620682014 	-8.673404003e-13
0.001242424242 	0.1726083774 	0.0001639105557 	-4.543785221e-12
0.001257575758 	0.1793074656 	0.0001642093859 	-7.050977121e-12
0.001272727273 	0.1860065533 	0.0001645082156 	-9.558168764e-12
0.001287878788 	0.1929680239 	0.0001626431184 	-8.615616969e-12
0.001303030303 	0.2001947164 	0.000158590528 	-4.186063062e-12
0.001318181818 	0.2074214087 	0.0001545379373 	2.434907848e-13
0.001333333333 	0.2148846747 	0.0001489477888 	3.424494174e-12
0.001348484848 	0.2228106146 	0.0001403504107 	4.165292667e-12
0.001363636364 	0.2307365541 	0.000131753033 	4.906089354e-12
0.001378787879 	0.238908079 	0.000121774182 	4.630538082e-12
0.001393939394 	0.2482034024 	0.0001054733878 	-2.960282021e-13
0.001409090909 	0.2574987256 	8.917259416e-05 	-5.222594865e-12
0.001424242424 	0.2668780238 	7.273158704e-05 	-9.984065242e-12
0.001439393939 	0.2802986648 	4.955829432e-05 	-6.803023422e-12
0.001454545455 	0.2937193051 	2.638500243e-05 	-3.621982711e-12
0.00146969697 	0.3071399444 	3.211711565e-06 	-4.409434054e-13
