# vtk DataFile Version 2.0
track0
ASCII
DATASET POLYDATA
POINTS 12342 float
-0.0205 0.001 1e-05
-0.02052 0.000999216 1e-05
-0.02054 0.000998592 1e-05
-0.02056 0.000998126 1e-05
-0.02058 0.000997818 1e-05
-0.0206 0.000997665 1e-05
-0.0205 0.00367778 1e-05
-0.02052 0.00367702 1e-05
-0.02054 0.00367642 1e-05
-0.02056 0.00367597 1e-05
-0.02058 0.00367566 1e-05
-0.0206 0.00367551 1e-05
-0.0205 0.00635556 1e-05
-0.02052 0.00635526 1e-05
-0.02054 0.00635502 1e-05
-0.02056 0.00635484 1e-05
-0.02058 0.00635472 1e-05
-0.0206 0.00635466 1e-05
-0.0205 0.00903333 1e-05
-0.02052 0.00903308 1e-05
-0.02054 0.00903289 1e-05
-0.02056 0.00903274 1e-05
-0.02058 0.00903264 1e-05
-0.0206 0.00903259 1e-05
-0.0205 0.0117111 1e-05
-0.02052 0.011711 1e-05
-0.02054 0.011711 1e-05
-0.02056 0.011711 1e-05
-0.02058 0.0117109 1e-05
-0.0206 0.0117109 1e-05
-0.0205 0.0143889 1e-05
-0.02052 0.0143889 1e-05
-0.02054 0.014389 1e-05
-0.02056 0.014389 1e-05
-0.02058 0.014389 1e-05
-0.0206 0.014389 1e-05
-0.0205 0.0170667 1e-05
-0.02052 0.017067 1e-05
-0.02054 0.0170672 1e-05
-0.02056 0.0170674 1e-05
-0.02058 0.0170675 1e-05
-0.0206 0.0170675 1e-05
-0.0205 0.0197444 1e-05
-0.02052 0.019745 1e-05
-0.02054 0.0197454 1e-05
-0.02056 0.0197457 1e-05
-0.02058 0.0197459 1e-05
-0.0206 0.019746 1e-05
-0.0205 0.0224222 1e-05
-0.02052 0.022423 1e-05
-0.02054 0.0224236 1e-05
-0.02056 0.0224241 1e-05
-0.02058 0.0224244 1e-05
-0.0206 0.0224245 1e-05
-0.0205 0.0251 1e-05
-0.02052 0.0251003 1e-05
-0.02054 0.0251005 1e-05
-0.02056 0.0251007 1e-05
-0.02058 0.0251008 1e-05
-0.0206 0.0251008 1e-05
-0.0205 0.001 1e-05
-0.0203632 0.00100536 1e-05
-0.0202265 0.00101332 1e-05
-0.02009 0.00102299 1e-05
-0.0200431 0.00102682 1e-05
-0.0198379 0.00104423 1e-05
-0.0196341 0.00107336 1e-05
-0.0194329 0.00111761 1e-05
-0.0192369 0.0011807 1e-05
-0.0190172 0.00125027 1e-05
-0.0189013 0.00128409 1e-05
-0.0187851 0.00131649 1e-05
-0.0186684 0.00134747 1e-05
-0.0185515 0.00137747 1e-05
-0.0183891 0.00141936 1e-05
-0.0182108 0.00146562 1e-05
-0.0180317 0.00150901 1e-05
-0.0178521 0.00154955 1e-05
-0.017672 0.00158819 1e-05
-0.0174976 0.00162542 1e-05
-0.0172954 0.00166835 1e-05
-0.0170932 0.0017109 1e-05
-0.0168908 0.00175306 1e-05
-0.0166884 0.00179451 1e-05
-0.0164614 0.00184007 1e-05
-0.0163769 0.00185665 1e-05
-0.0162923 0.00187309 1e-05
-0.0162077 0.0018894 1e-05
-0.0161231 0.00190557 1e-05
-0.0160387 0.00192147 1e-05
-0.0157586 0.00197348 1e-05
-0.0154779 0.00202274 1e-05
-0.0151968 0.0020691 1e-05
-0.0149154 0.00211349 1e-05
-0.0146381 0.00215593 1e-05
-0.0144558 0.00218294 1e-05
-0.0142733 0.00220921 1e-05
-0.0140908 0.00223478 1e-05
-0.0139082 0.00225967 1e-05
-0.0136718 0.00229098 1e-05
-0.0135961 0.00230061 1e-05
-0.0135204 0.00231009 1e-05
-0.0134447 0.00231941 1e-05
-0.013369 0.00232858 1e-05
-0.0132934 0.00233758 1e-05
-0.0130353 0.00236785 1e-05
-0.0127769 0.00239643 1e-05
-0.0125184 0.00242361 1e-05
-0.0122597 0.00244934 1e-05
-0.0120025 0.00247353 1e-05
-0.0117547 0.00249557 1e-05
-0.0115067 0.00251618 1e-05
-0.0112586 0.00253534 1e-05
-0.0110104 0.00255327 1e-05
-0.0107632 0.00257007 1e-05
-0.0105252 0.00258522 1e-05
-0.0102872 0.00259924 1e-05
-0.0100491 0.00261213 1e-05
-0.00981094 0.00262386 1e-05
-0.00957337 0.00263459 1e-05
-0.00934491 0.00264406 1e-05
-0.00911642 0.00265263 1e-05
-0.00888789 0.00266027 1e-05
-0.00865933 0.00266695 1e-05
-0.00843108 0.00267269 1e-05
-0.00821175 0.00267748 1e-05
-0.00799241 0.00268153 1e-05
-0.00777305 0.00268475 1e-05
-0.00755368 0.00268714 1e-05
-0.00733443 0.00268869 1e-05
-0.00712387 0.00268951 1e-05
-0.0069133 0.00268966 1e-05
-0.00670273 0.00268904 1e-05
-0.00649217 0.00268764 1e-05
-0.0062816 0.00268546 1e-05
-0.00607944 0.0026827 1e-05
-0.0058773 0.00267932 1e-05
-0.00567517 0.00267512 1e-05
-0.00547306 0.00267013 1e-05
-0.00527083 0.00266433 1e-05
-0.00507675 0.00265804 1e-05
-0.0048827 0.00265107 1e-05
-0.00468868 0.00264324 1e-05
-0.00449469 0.0026345 1e-05
-0.00430044 0.00262481 1e-05
-0.00411412 0.00261461 1e-05
-0.00392784 0.00260359 1e-05
-0.00374162 0.00259167 1e-05
-0.00355548 0.00257861 1e-05
-0.00336883 0.00256424 1e-05
-0.00318995 0.00254927 1e-05
-0.00301117 0.00253319 1e-05
-0.00283249 0.002516 1e-05
-0.00265395 0.0024974 1e-05
-0.00247443 0.00247692 1e-05
-0.0023027 0.00245564 1e-05
-0.00213118 0.00243276 1e-05
-0.0019599 0.00240809 1e-05
-0.00178892 0.00238141 1e-05
-0.00161577 0.00235232 1e-05
-0.00154846 0.00234005 1e-05
-0.00148121 0.0023274 1e-05
-0.00141406 0.00231426 1e-05
-0.00134701 0.00230063 1e-05
-0.0013013 0.00229098 1e-05
-0.00119933 0.00226891 1e-05
-0.00109756 0.00224592 1e-05
-0.000995998 0.002222 1e-05
-0.000894657 0.00219718 1e-05
-0.000791418 0.00217076 1e-05
-0.000633135 0.00212817 1e-05
-0.000475726 0.00208245 1e-05
-0.000319232 0.00203369 1e-05
-0.000163913 0.00198131 1e-05
0 0.00192103 1e-05
3.86344e-05 0.00190555 1e-05
7.71263e-05 0.00188972 1e-05
0.000115475 0.00187355 1e-05
0.000153681 0.00185704 1e-05
0.000184349 0.00184347 1e-05
0.000253157 0.00181245 1e-05
0.000321421 0.00178026 1e-05
0.000389125 0.0017469 1e-05
0.000456253 0.00171239 1e-05
0.000528387 0.0016738 1e-05
0.00061441 0.00162579 1e-05
0.000699394 0.00157597 1e-05
0.000783298 0.00152435 1e-05
0.00086612 0.00147101 1e-05
0.000922205 0.00143322 1e-05
0.000949941 0.00141394 1e-05
0.000977519 0.00139445 1e-05
0.00100494 0.00137473 1e-05
0.0010322 0.0013548 1e-05
0.00106088 0.0013335 1e-05
0.00113773 0.00127547 1e-05
0.0012133 0.0012158 1e-05
0.00128755 0.00115449 1e-05
0.00136052 0.00109166 1e-05
0.00141486 0.00104303 1e-05
0.00145139 0.00100934 1e-05
0.00148751 0.000975206 1e-05
0.0015232 0.00094063 1e-05
0.00155853 0.000905686 1e-05
0.00159752 0.000866333 1e-05
0.00163468 0.000827945 1e-05
0.0016714 0.000789129 1e-05
0.00170767 0.000749885 1e-05
0.00174346 0.000710214 1e-05
0.00177522 0.00067433 1e-05
0.00183564 0.000604866 1e-05
0.00189465 0.000534192 1e-05
0.00195218 0.000462313 1e-05
0.00200848 0.00038947 1e-05
0.00205521 0.000326922 1e-05
0.00207183 0.000304008 1e-05
0.00208832 0.000280993 1e-05
0.00210467 0.000257887 1e-05
0.00212092 0.000234703 1e-05
0.00213833 0.000209596 1e-05
0.00216706 0.000167677 1e-05
0.0021954 0.00012549 1e-05
0.00222334 8.30335e-05 1e-05
0.00225086 4.03086e-05 1e-05
0.00227632 0 1e-05
0.00232191 -7.34491e-05 1e-05
0.00236652 -0.000147503 1e-05
0.00241011 -0.00022216 1e-05
0.00245273 -0.000297379 1e-05
0.00249118 -0.000367209 1e-05
0.00252961 -0.000438926 1e-05
0.00256726 -0.000511058 1e-05
0.00260418 -0.000583563 1e-05
0.00264042 -0.000656412 1e-05
0.00268334 -0.000744796 1e-05
0.00268634 -0.000751177 1e-05
0.00268934 -0.00075756 1e-05
0.00269233 -0.000763947 1e-05
0.00269532 -0.000770337 1e-05
0.00269829 -0.0007767 1e-05
0.00274077 -0.000867989 1e-05
0.00278234 -0.000959696 1e-05
0.00282298 -0.00105182 1e-05
0.00286268 -0.00114435 1e-05
0.00289971 -0.00123306 1e-05
0.00294113 -0.00133475 1e-05
0.0029816 -0.00143682 1e-05
0.0030211 -0.00153927 1e-05
0.00305975 -0.00164205 1e-05
0.00309632 -0.0017414 1e-05
0.00312358 -0.00181705 1e-05
0.00315044 -0.00189284 1e-05
0.00317697 -0.00196875 1e-05
0.00320319 -0.00204476 1e-05
0.00323259 -0.0021311 1e-05
0.00324441 -0.00216638 1e-05
0.00325616 -0.00220169 1e-05
0.00326782 -0.00223702 1e-05
0.00327941 -0.00227239 1e-05
0.00329082 -0.0023075 1e-05
0.00333155 -0.00243358 1e-05
0.00337151 -0.0025599 1e-05
0.00341081 -0.00268643 1e-05
0.00344943 -0.00281318 1e-05
0.00348683 -0.00293779 1e-05
0.00352838 -0.00307815 1e-05
0.00356928 -0.0032187 1e-05
0.00360951 -0.00335944 1e-05
0.0036493 -0.00350031 1e-05
0.00368821 -0.00363949 1e-05
0.00370779 -0.00371001 1e-05
0.00372728 -0.00378055 1e-05
0.0037467 -0.00385111 1e-05
0.0037661 -0.00392169 1e-05
0.00378611 -0.00399468 1e-05
0.00380941 -0.00407988 1e-05
0.00383262 -0.00416511 1e-05
0.00385572 -0.00425037 1e-05
0.00387872 -0.00433566 1e-05
0.00390156 -0.00442068 1e-05
0.00394823 -0.00459462 1e-05
0.00399464 -0.00476862 1e-05
0.00404082 -0.00494269 1e-05
0.004087 -0.00511676 1e-05
0.00413326 -0.00529034 1e-05
0.00417539 -0.00544766 1e-05
0.00421757 -0.00560496 1e-05
0.00425987 -0.00576223 1e-05
0.0043024 -0.00591943 1e-05
0.00434393 -0.00607199 1e-05
0.00435415 -0.0061093 1e-05
0.00436438 -0.00614661 1e-05
0.00437461 -0.00618391 1e-05
0.00438486 -0.00622121 1e-05
0.00439512 -0.00625854 1e-05
0.00445453 -0.00647408 1e-05
0.00451438 -0.0066895 1e-05
0.00457485 -0.00690474 1e-05
0.00463597 -0.0071198 1e-05
0.00469857 -0.00733634 1e-05
0.00474007 -0.00747743 1e-05
0.00478192 -0.00761841 1e-05
0.00482413 -0.00775929 1e-05
0.00486681 -0.00790002 1e-05
0.00490609 -0.00802801 1e-05
0.00493763 -0.00812962 1e-05
0.0049694 -0.00823115 1e-05
0.0050014 -0.00833261 1e-05
0.00503364 -0.008434 1e-05
0.00506643 -0.00853608 1e-05
0.00513972 -0.00876187 1e-05
0.00521434 -0.00898722 1e-05
0.00529033 -0.00921212 1e-05
0.00536793 -0.00943646 1e-05
0.00544904 -0.00966523 1e-05
0.00545376 -0.00967818 1e-05
0.00545848 -0.00969114 1e-05
0.00546321 -0.00970408 1e-05
0.00546794 -0.00971703 1e-05
0.00547262 -0.00972982 1e-05
0.00555066 -0.00994267 1e-05
0.00563037 -0.0101549 1e-05
0.00571181 -0.0103665 1e-05
0.00579506 -0.0105773 1e-05
0.00588314 -0.0107943 1e-05
0.00591523 -0.010871 1e-05
0.00594757 -0.0109477 1e-05
0.00598018 -0.0110242 1e-05
0.00601307 -0.0111006 1e-05
0.00604356 -0.0111707 1e-05
0.00610966 -0.0113212 1e-05
0.00617692 -0.0114712 1e-05
0.00624537 -0.0116206 1e-05
0.00631505 -0.0117695 1e-05
0.00638872 -0.0119234 1e-05
0.00643476 -0.0120172 1e-05
0.00648132 -0.0121108 1e-05
0.0065284 -0.0122042 1e-05
0.00657601 -0.0122973 1e-05
0.00661893 -0.0123799 1e-05
0.00668968 -0.0125144 1e-05
0.00676164 -0.0126482 1e-05
0.00683484 -0.0127814 1e-05
0.00690932 -0.0129138 1e-05
0.00698914 -0.0130524 1e-05
0.00703107 -0.0131235 1e-05
0.00707338 -0.0131943 1e-05
0.00711607 -0.0132649 1e-05
0.00715916 -0.0133352 1e-05
0.00719878 -0.0133991 1e-05
0.00729696 -0.0135555 1e-05
0.00739722 -0.0137107 1e-05
0.00749958 -0.0138644 1e-05
0.00760408 -0.0140167 1e-05
0.00772075 -0.0141816 1e-05
0.00773323 -0.0141987 1e-05
[...]
POINT_DATA 12342
 FIELD attributes 1
U 3 12342 float
9.7228 	0.381223 	0 9.77824 	0.304978 	0 9.8337 	0.228712 	0 9.88916 	0.15243 	0 9.94464 	0.0761356 	0 10 	0 	0
10.0658 	0.379414 	0 10.0527 	0.303531 	0 10.0395 	0.227629 	0 10.0263 	0.151712 	0 10.0132 	0.0757838 	0 10 	0 	0
10.0349 	0.150165 	0 10.0279 	0.120163 	0 10.0209 	0.0902197 	0 10.0139 	0.0603341 	0 10.0069 	0.0305067 	0 10 	0 	0
10.0126 	0.124657 	0 10.0101 	0.0997257 	0 10.0075 	0.0747936 	0 10.005 	0.0498609 	0 10.0025 	0.0249279 	0 10 	0 	0
10.0087 	0.0326586 	0 10.007 	0.0261268 	0 10.0052 	0.0195951 	0 10.0035 	0.0130634 	0 10.0017 	0.00653165 	0 10 	0 	0
10.0093 	-0.026519 	0 10.0074 	-0.0212152 	0 10.0056 	-0.0159114 	0 10.0037 	-0.0106076 	0 10.0019 	-0.00530377 	0 10 	0 	0
10.0167 	-0.1434 	0 10.0133 	-0.11472 	0 10.01 	-0.086039 	0 10.0067 	-0.0573571 	0 10.0033 	-0.0286746 	0 10 	0 	0
10.0353 	-0.263406 	0 10.0282 	-0.210724 	0 10.0212 	-0.158037 	0 10.0141 	-0.105344 	0 10.0071 	-0.0526478 	0 10 	0 	0
10.0548 	-0.386435 	0 10.0438 	-0.309148 	0 10.0329 	-0.231841 	0 10.0219 	-0.154517 	0 10.0109 	-0.0771823 	0 10 	0 	0
8.30005 	-0.114385 	0 8.42768 	-0.0915084 	0 8.55583 	-0.0686305 	0 8.68447 	-0.0457519 	0 8.8136 	-0.022873 	0 8.94316 	0 	0
9.7228 	0.381223 	0 9.54021 	0.555765 	0 9.3948 	0.664814 	0 9.25958 	0.755999 	0 9.21615 	0.782007 	0 8.95008 	1.27899 	0 8.7012 	1.91472 	0 8.47592 	2.72803 	0 8.46063 	2.67825 	0 8.46463 	2.47085 	0 8.49262 	2.3672 	0 8.51596 	2.26149 	0 8.50241 	2.18252 	0 8.41137 	2.16862 	0 8.2851 	2.14979 	0 8.28444 	2.00811 	0 8.27062 	1.86568 	0 8.18966 	1.75705 	0 8.00481 	1.70875 	0 7.82534 	1.66177 	0 7.64785 	1.60934 	0 7.46927 	1.55645 	0 7.39015 	1.51291 	0 7.32254 	1.46981 	0 7.24335 	1.42037 	0 7.17363 	1.39491 	0 7.10369 	1.36932 	0 7.03352 	1.3436 	0 6.99751 	1.31836 	0 6.96361 	1.29306 	0 6.87498 	1.20685 	0 6.77967 	1.11801 	0 6.68524 	1.0546 	0 6.59422 	1.009 	0 6.5015 	0.963202 	0 6.44692 	0.928624 	0 6.40043 	0.896503 	0 6.36349 	0.867273 	0 6.32476 	0.837528 	0 6.2723 	0.798356 	0 6.24719 	0.782444 	0 6.22181 	0.766465 	0 6.19614 	0.75042 	0 6.17252 	0.735083 	0 6.15445 	0.721625 	0 6.10232 	0.67502 	0 6.0547 	0.636394 	0 6.00443 	0.597329 	0 5.96011 	0.560644 	0 5.92167 	0.526443 	0 5.88442 	0.489145 	0 5.84432 	0.451345 	0 5.81406 	0.419984 	0 5.79365 	0.393764 	0 5.77126 	0.367411 	0 5.74714 	0.33866 	0 5.72259 	0.309734 	0 5.7046 	0.280991 	0 5.69096 	0.256869 	0 5.67933 	0.235488 	0 5.66439 	0.212593 	0 5.65391 	0.188986 	0 5.64445 	0.164975 	0 5.63418 	0.141507 	0 5.63035 	0.12298 	0 5.62245 	0.103849 	0 5.62139 	0.0825228 	0 5.61869 	0.0611499 	0 5.61433 	0.0397332 	0 5.61579 	0.0218477 	0 5.6148 	0.0042049 	0 5.61948 	-0.0166204 	0 5.62262 	-0.0374241 	0 5.62421 	-0.058206 	0 5.63098 	-0.0768505 	0 5.63506 	-0.094391 	0 5.64529 	-0.117119 	0 5.65392 	-0.139756 	0 5.66146 	-0.162253 	0 5.67395 	-0.184045 	0 5.68348 	-0.203883 	0 5.69766 	-0.22995 	0 5.71174 	-0.257591 	0 5.72685 	-0.285627 	0 5.74434 	-0.31438 	0 5.76041 	-0.340668 	0 5.77666 	-0.369773 	0 5.796 	-0.406871 	0 5.81978 	-0.447777 	0 5.84193 	-0.488898 	0 5.86499 	-0.527731 	0 5.88585 	-0.566225 	0 5.9107 	-0.615695 	0 5.93866 	-0.677467 	0 5.96335 	-0.738905 	0 5.99189 	-0.799467 	0 6.02064 	-0.867029 	0 6.05045 	-0.944238 	0 6.07636 	-1.02084 	0 6.0978 	-1.11135 	0 6.10913 	-1.14966 	0 6.12097 	-1.19736 	0 6.13217 	-1.24707 	0 6.14241 	-1.29659 	0 6.14875 	-1.33027 	0 6.15807 	-1.39155 	0 6.16542 	-1.45189 	0 6.17084 	-1.51129 	0 6.17779 	-1.58106 	0 6.18675 	-1.66478 	0 6.21056 	-1.80391 	0 6.22785 	-1.94045 	0 6.21765 	-2.09691 	1.69439e-20 6.17535 	-2.27092 	4.46387e-20 6.12233 	-2.45288 	7.66011e-20 6.11384 	-2.51425 	1.65003e-20 6.1012 	-2.57307 	-1.08777e-20 6.08159 	-2.62756 	2.05847e-20 6.06131 	-2.68167 	5.28659e-20 6.04443 	-2.72496 	7.95326e-20 6.01794 	-2.83849 	1.96149e-19 5.98955 	-2.9512 	3.17665e-19 5.95926 	-3.06307 	4.44014e-19 5.9047 	-3.15882 	2.85084e-19 5.84006 	-3.25924 	7.18511e-20 5.76749 	-3.38134 	6.36945e-20 5.69154 	-3.50164 	5.6583e-20 5.59986 	-3.60663 	3.69936e-20 5.50371 	-3.7084 	1.70576e-20 5.43545 	-3.77688 	4.00971e-21 5.40172 	-3.81864 	6.71632e-21 5.36757 	-3.86022 	9.65011e-21 5.33146 	-3.89796 	4.28781e-21 5.29304 	-3.93103 	-1.13899e-20 5.25199 	-3.9658 	-2.77957e-20 5.14599 	-4.06321 	-1.16881e-20 5.03675 	-4.15887 	4.82821e-21 4.92424 	-4.23982 	1.42452e-20 4.8087 	-4.3042 	1.54163e-20 4.71911 	-4.35162 	1.65144e-20 4.65539 	-4.39957 	8.75743e-21 4.59077 	-4.44713 	9.80508e-22 4.52832 	-4.47862 	6.09432e-21 4.46557 	-4.50749 	1.30788e-20 4.39482 	-4.53925 	2.08786e-20 4.32586 	-4.5729 	2.24191e-20 4.25603 	-4.60605 	2.4045e-20 4.18533 	-4.63868 	2.5757e-20 4.11957 	-4.65411 	2.76458e-20 4.05998 	-4.66752 	2.94025e-20 3.94211 	-4.72183 	5.04877e-20 3.82175 	-4.775 	7.21284e-20 3.71111 	-4.80136 	4.78787e-20 3.59748 	-4.81511 	5.40931e-21 3.49733 	-4.82098 	-3.75661e-20 3.46113 	-4.83267 	-4.80076e-20 3.42602 	-4.8396 	-4.9551e-20 3.39212 	-4.84139 	-4.1452e-20 3.35805 	-4.84307 	-3.33689e-20 3.32108 	-4.84476 	-2.46632e-20 3.25849 	-4.8506 	-6.6609e-21 3.19527 	-4.856 	1.12348e-20 3.13144 	-4.86097 	2.90207e-20 3.06866 	-4.85922 	3.02261e-20 3.01107 	-4.85035 	1.32849e-20 2.93048 	-4.86496 	7.78941e-21 2.84865 	-4.87876 	2.21956e-21 2.75882 	-4.86972 	-4.48855e-21 2.66728 	-4.84323 	-9.72137e-21 2.5817 	-4.81779 	-1.46662e-20 2.51653 	-4.82171 	-3.4439e-20 2.45174 	-4.81439 	-3.64249e-20 2.38709 	-4.79834 	-2.48082e-20 2.32165 	-4.78168 	-1.34077e-20 2.24166 	-4.76079 	8.97153e-23 2.23563 	-4.75952 	1.04221e-21 2.2296 	-4.75825 	1.99281e-21 2.22356 	-4.75697 	2.9415e-21 2.21754 	-4.75526 	2.42658e-21 2.21163 	-4.7526 	-1.47699e-21 2.14652 	-4.73547 	-2.30414e-20 2.08003 	-4.71426 	-4.22712e-20 2.01265 	-4.69204 	-6.13139e-20 1.94555 	-4.66024 	-6.5199e-20 1.88192 	-4.62021 	-5.3416e-20 1.82697 	-4.60768 	-1.03969e-19 1.7712 	-4.59434 	-1.54671e-19 1.71746 	-4.56674 	-1.18371e-19 1.66474 	-4.52284 	-2.04805e-20 1.61343 	-4.47856 	7.80668e-20 1.58331 	-4.46715 	1.57734e-19 1.55482 	-4.44866 	1.53835e-19 1.52714 	-4.42619 	1.04431e-19 1.49922 	-4.40346 	5.53691e-20 1.46727 	-4.37739 	1.14223e-22 1.45268 	-4.36692 	-9.04804e-21 1.43803 	-4.35639 	-1.82095e-20 1.42333 	-4.34579 	-2.73702e-20 1.40888 	-4.33392 	-3.44992e-20 1.39533 	-4.31891 	-3.61691e-20 1.35768 	-4.29234 	-2.61306e-20 1.32242 	-4.2578 	-2.12617e-20 1.28678 	-4.22267 	-1.65003e-20 1.25385 	-4.17756 	-1.96898e-20 1.2224 	-4.12918 	-2.59235e-20 1.19341 	-4.10151 	-1.27334e-20 1.16419 	-4.07296 	1.43433e-21 1.13896 	-4.03236 	4.68723e-20 1.11521 	-3.98893 	1.00473e-19 1.0944 	-3.94168 	1.66813e-19 1.0853 	-3.9287 	1.97089e-19 1.07732 	-3.91274 	1.85043e-19 1.0701 	-3.89474 	1.43897e-19 1.06286 	-3.87671 	1.02787e-19 1.05536 	-3.85804 	6.03118e-20 1.0444 	-3.83591 	5.91366e-20 1.03341 	-3.81372 	5.78472e-20 1.02236 	-3.79146 	5.64416e-20 1.0121 	-3.76701 	2.63046e-20 1.00317 	-3.73918 	-5.01912e-20 0.987624 	-3.7031 	-1.63562e-19 0.972766 	-3.66606 	-2.64012e-19 0.961321 	-3.6242 	-2.82581e-19 0.952776 	-3.57487 	-1.54578e-19 0.944336 	-3.52579 	-2.68417e-20 0.93746 	-3.49637 	1.09468e-19 0.931653 	-3.46407 	1.84394e-19 0.92739 	-3.4277 	1.72129e-19 0.923226 	-3.39145 	1.59691e-19 0.919283 	-3.35639 	1.47443e-19 0.917711 	-3.34767 	1.70161e-19 0.916142 	-3.33895 	1.92895e-19 0.914576 	-3.33024 	2.15643e-19 0.913363 	-3.3206 	1.97789e-19 0.912385 	-3.31033 	1.5322e-19 0.90767 	-3.26681 	-1.54105e-20 0.905187 	-3.222 	-1.43098e-19 0.902992 	-3.17725 	-2.6435e-19 0.903469 	-3.12555 	-1.82655e-19 0.904279 	-3.07388 	-1.0028e-19 0.90493 	-3.04854 	-6.97023e-20 0.905815 	-3.02316 	-4.00864e-20 0.908291 	-2.99542 	-2.28039e-20 0.910932 	-2.96787 	-5.54162e-21 0.913489 	-2.94298 	1.01546e-20 0.91421 	-2.92189 	2.28854e-20 0.915002 	-2.90089 	3.56079e-20 0.915866 	-2.87998 	4.83217e-20 0.917965 	-2.85748 	5.04432e-20 0.920188 	-2.8349 	5.24298e-20 0.92388 	-2.79039 	1.44023e-19 0.928 	-2.74637 	2.35241e-19 0.934131 	-2.70038 	2.05897e-19 0.941117 	-2.65448 	1.50618e-19 0.949528 	-2.60818 	7.14191e-20 0.949986 	-2.60595 	6.97555e-20 0.950445 	-2.60373 	6.80923e-20 0.950969 	-2.60132 	6.83772e-20 0.951501 	-2.59889 	6.88851e-20 0.952029 	-2.5965 	6.93881e-20 0.959235 	-2.55398 	1.2755e-19 0.966919 	-2.51197 	1.87115e-19 0.975229 	-2.47014 	2.3062e-19 0.984987 	-2.42636 	1.47638e-19 0.99568 	-2.38176 	6.24185e-20 0.999393 	-2.36794 	5.70143e-20 1.00318 	-2.35419 	5.16374e-20 1.00727 	-2.3398 	4.96805e-20 1.01151 	-2.32523 	4.89504e-20 1.01549 	-2.31192 	4.8321e-20 1.02314 	-2.28153 	3.03302e-20 1.03112 	-2.25145 	1.22278e-20 1.0396 	-2.22117 	0 1.04876 	-2.19018 	0 1.05866 	-2.15838 	0 1.06468 	-2.14089 	0 1.07085 	-2.12352 	0 1.07729 	-2.1058 	0 1.08397 	-2.08783 	0 1.09007 	-2.07194 	0 1.09936 	-2.04441 	0 1.109 	-2.01716 	0 1.1191 	-1.9897 	-2.47384e-23 1.12965 	-1.96211 	-7.06975e-23 1.14115 	-1.9334 	-1.19401e-22 1.14713 	-1.91984 	-1.21161e-22 1.15322 	-1.90638 	-1.23082e-22 1.15941 	-1.89287 	3.24173e-21 1.1657 	-1.87917 	1.33527e-20 1.17153 	-1.86678 	2.25973e-20 1.18533 	-1.83422 	7.02411e-20 1.19973 	-1.80212 	1.18584e-19 1.21456 	-1.77008 	1.15692e-19 1.22995 	-1.7384 	9.5785e-20 1.24747 	-1.7043 	7.42373e-20 1.24935 	-1.701 	7.64758e-20 1.25124 	-1.69771 	7.87115e-20 1.25312 	-1.69442 	8.02537e-20 1.25494 	-1.69111 	7.29949e-20 1.25673 	-1.68788 	6.58873e-20 1.2737 	-1.65443 	-1.67394e-20 1.2916 	-1.6216 	-8.73528e-20 1.31003 	-1.58938 	-1.19203e-19 1.32853 	-1.55784 	-6.86702e-20 1.34397 	-1.53305 	-2.72401e-20 1.3521 	-1.51947 	-2.58778e-20 1.3603 	-1.50601 	-2.5178e-20 1.36821 	-1.49282 	-2.92318e-20 1.37624 	-1.47972 	-3.32594e-20 1.38497 	-1.46585 	-3.75341e-20 1.39449 	-1.45157 	-3.31219e-20 1.40418 	-1.43743 	-2.87463e-20 1.41404 	-1.42342 	-2.4408e-20 1.42328 	-1.40987 	-2.00273e-20 1.4317 	-1.39765 	-1.6029e-20 1.44957 	-1.37125 	5.21767e-20 1.46802 	-1.34528 	1.21173e-19 1.4857 	-1.32042 	1.25599e-19 1.50326 	-1.29652 	7.41949e-20 1.51881 	-1.27634 	2.93238e-20 1.5282 	-1.26423 	2.71692e-20 1.53724 	-1.25248 	2.75155e-20 1.54582 	-1.24112 	3.08982e-20 1.55452 	-1.22986 	3.42513e-20 1.56418 	-1.21764 	3.7889e-20 1.57257 	-1.20751 	3.48908e-20 1.58107 	-1.19746 	3.19192e-20 1.58968 	-1.1875 	2.89743e-20 1.59767 	-1.17796 	2.85014e-20 1.60461 	-1.16933 	3.0685e-20 1.62244 	-1.14818 	8.1176e-20 1.6405 	-1.12754 	1.16508e-19 1.6583 	-1.10768 	1.20362e-19 1.67357 	-1.08958 	5.74408e-20 1.68777 	-1.07343 	-1.24102e-22 1.70631 	-1.05386 	-7.51294e-23 1.72395 	-1.03523 	-2.48378e-23 1.73985 	-1.01793 	2.72858e-23 1.7561 	-1.00091 	7.97607e-23 1.77086 	-0.985736 	1.37921e-22 1.77773 	-0.979225 	2.22426e-20 1.78357 	-0.973256 	2.02996e-20 1.78925 	-0.967419 	1.36664e-20 1.79497 	-0.961616 	7.08078e-21 1.80118 	-0.955396 	3.41948e-23 1.81138 	-0.945465 	-1.13221e-20 1.82171 	-0.935631 	-2.25345e-20 1.83215 	-0.925896 	-3.36033e-20 1.84236 	-0.91642 	-3.92067e-20 1.84979 	-0.908504 	-6.95051e-21 1.86736 	-0.892672 	-1.29031e-21 1.88402 	-0.877626 	-4.08822e-23 1.90063 	-0.86296 	-7.92693e-24 1.91377 	-0.850156 	3.7493e-21 1.92539 	-0.838627 	8.45282e-21 1.94348 	-0.823827 	5.49465e-21 1.96187 	-0.809243 	2.49834e-21 1.97656 	-0.796534 	4.55415e-21 1.9885 	-0.785188 	1.55578e-20 2.00018 	-0.774429 	2.6188e-20 2.01871 	-0.760569 	1.35939e-20 2.03428 	-0.748212 	3.892e-21 2.04805 	-0.736848 	-3.98975e-21 2.06204 	-0.725636 	-1.18919e-20 2.07405 	-0.715461 	-6.64022e-21 2.08623 	-0.706869 	-1.6011e-20 2.09551 	-0.699521 	-2.02576e-20 2.10488 	-0.692237 	-2.44875e-20 2.11435 	-0.685016 	-2.87007e-20 2.12537 	-0.676765 	-3.35388e-20 2.12955 	-0.673732 	-3.74045e-20 2.13374 	-0.67071 	-4.12548e-20 2.13795 	-0.6677 	-4.50897e-20 2.14218 	-0.664701 	-4.89094e-20 2.14493 	-0.662299 	-3.83558e-20 2.15954 	-0.651833 	-2.3601e-20 2.17336 	-0.641825 	-7.76939e-21 2.18738 	-0.631939 	8.09071e-21 2.20158 	-0.622175 	2.39784e-20 2.20926 	-0.615089 	2.66553e-20 2.22635 	-0.604554 	8.43841e-20 2.24123 	-0.59486 	1.02095e-19 2.25526 	-0.585587 	1.02551e-19 2.26506 	-0.577973 	6.00749e-20 2.2722 	-0.571489 	-7.44811e-21 2.28958 	-0.561546 	-6.78283e-20 2.30716 	-0.551713 	-1.28282e-19 2.31998 	-0.543434 	-1.27346e-19 2.32684 	-0.537253 	-6.32347e-20 2.33372 	-0.531211 	9.25319e-23 2.35133 	-0.521812 	6.41136e-20 2.36914 	-0.512513 	1.28213e-19 2.38061 	-0.50537 	1.24772e-19 2.38716 	-0.499617 	6.30443e-20 2.39374 	-0.493978 	1.95674e-21 2.41155 	-0.485083 	-3.47088e-21 2.42678 	-0.477118 	-7.26591e-21 2.43725 	-0.470729 	-8.18234e-21 2.44598 	-0.464806 	-1.06107e-20 2.45223 	-0.459536 	-1.50601e-20 2.4702 	-0.451106 	-1.14693e-20 2.48154 	-0.444721 	-1.16973e-20 2.49193 	-0.438711 	-1.25306e-20 2.50244 	-0.432753 	-1.3349e-20 2.50914 	-0.427656 	-5.19294e-21 2.52458 	-0.420387 	2.6379e-20 2.53474 	-0.414679 	1.92003e-20 2.54502 	-0.409017 	1.21467e-20 2.55542 	-0.403402 	5.21692e-21 2.56446 	-0.398123 	-1.51432e-20 2.57201 	-0.394547 	-1.72353e-20 2.57763 	-0.391501 	-1.51444e-20 2.5833 	-0.388468 	-1.30508e-20 2.589 	-0.385449 	-1.09546e-20 2.59538 	-0.382108 	-8.62213e-21 2.59973 	-0.379867 	-6.7478e-21 2.6041 	-0.377632 	-4.87434e-21 2.60849 	-0.375405 	-3.00175e-21 2.6129 	-0.373186 	-1.13001e-21 2.61578 	-0.3714 	0 2.62676 	-0.366029 	-2.98732e-21 2.63669 	-0.360946 	-6.71927e-21 2.64673 	-0.355901 	-1.04586e-20 2.65687 	-0.350894 	-1.42052e-20 2.66196 	-0.347281 	-1.79404e-20 2.67555 	-0.341659 	9.55388e-21 2.68531 	-0.336856 	2.02449e-20 2.69518 	-0.332086 	3.08935e-20 2.70515 	-0.32735 	4.15e-20 2.70659 	-0.324803 	8.82637e-21 2.7225 	-0.319035 	-5.33171e-20 2.73233 	-0.314446 	-6.07392e-20 2.74202 	-0.309933 	-6.58948e-20 2.74956 	-0.30598 	-5.79745e-20 2.74967 	-0.30384 	-6.43943e-21 2.76565 	-0.29835 	-9.36927e-20 2.77774 	-0.293582 	-1.39835e-19 2.78723 	-0.289307 	-1.58126e-19 2.79149 	-0.28626 	-1.15693e-19 2.79122 	-0.284273 	-2.10062e-20 2.80724 	-0.279046 	8.22081e-20 2.82155 	-0.274144 	1.64148e-19 2.83083 	-0.270093 	1.86435e-19 2.83191 	-0.267848 	1.22939e-19 2.83127 	-0.266002 	4.11626e-20 2.84731 	-0.261023 	5.75728e-20 2.86348 	-0.256072 	7.39865e-20 2.87191 	-0.252375 	6.90078e-20 2.87085 	-0.250647 	3.56326e-20 2.86983 	-0.248929 	2.31762e-21 2.88587 	-0.244185 	-6.38886e-20 2.90204 	-0.239467 	-1.30096e-19 2.90975 	-0.236172 	-1.36875e-19 2.90831 	-0.234564 	-7.88519e-20 2.90691 	-0.232964 	-2.09167e-20 2.92295 	-0.228443 	-1.22821e-20 2.9391 	-0.223946 	-3.65685e-21 2.94614 	-0.221017 	0 2.94433 	-0.219519 	0 2.94256 	-0.218028 	0 2.95856 	-0.213719 	0 2.97468 	-0.209431 	0 2.9811 	-0.206836 	1.9782e-21 2.97893 	-0.205439 	-1.64698e-21 2.97679 	-0.204049 	-5.27166e-21 2.99276 	-0.199941 	-6.68951e-22 3.00883 	-0.195852 	3.92007e-21 3.01436 	-0.193596 	4.27883e-21 3.01215 	-0.192255 	8.76124e-22 3.00965 	-0.190957 	-2.68128e-21 3.02556 	-0.187041 	1.93727e-21 3.03954 	-0.183473 	7.35677e-21 3.04488 	-0.18134 	1.62517e-20 3.044 	-0.179902 	2.81212e-20 3.04114 	-0.17869 	4.09324e-20 3.05698 	-0.174955 	9.5051e-20 3.06894 	-0.171857 	1.30305e-19 3.07411 	-0.169836 	1.33133e-19 3.07451 	-0.168321 	1.06476e-19 3.0713 	-0.167188 	5.75678e-20 3.08707 	-0.163627 	1.07662e-19 3.09709 	-0.160948 	1.25823e-19 3.10209 	-0.159034 	1.16184e-19 3.10372 	-0.15746 	8.7578e-20 3.10017 	-0.1564 	3.00589e-20 3.11586 	-0.153005 	8.81489e-20 3.12404 	-0.1507 	1.02149e-19 3.12886 	-0.148887 	9.63789e-20 3.13166 	-0.147269 	7.55433e-20 3.12778 	-0.146277 	5.74846e-21 3.14338 	-0.14304 	1.02381e-20 3.1498 	-0.141068 	4.08791e-21 3.15445 	-0.139349 	-4.15397e-21 3.15837 	-0.137703 	-1.27433e-20 3.15417 	-0.136773 	-2.49816e-20 3.16966 	-0.133687 	-7.85816e-20 3.17442 	-0.132011 	-7.44681e-20 3.1789 	-0.130381 	-6.86814e-20 3.18342 	-0.128756 	-6.29192e-20 3.17936 	-0.127845 	5.42898e-23 3.19365 	-0.12504 	1.30631e-21 3.19792 	-0.12349 	1.40153e-20 3.20223 	-0.121945 	2.67198e-20 3.20658 	-0.120403 	3.942e-20 3.20339 	-0.119456 	5.87173e-20 3.21624 	-0.116939 	1.45601e-19 3.22033 	-0.11547 	1.43053e-19 3.22447 	-0.114004 	1.40542e-19 3.22865 	-0.112542 	1.3807e-19 3.22629 	-0.111568 	5.89773e-20 3.23777 	-0.109311 	4.11828e-20 3.2417 	-0.107918 	2.91071e-20 3.24567 	-0.106527 	1.70271e-20 3.24968 	-0.10514 	4.94275e-21 3.2481 	-0.104149 	-4.73573e-21 3.25828 	-0.102126 	-3.88493e-20 3.26204 	-0.100804 	-4.17326e-20 3.26585 	-0.0994845 	-4.46355e-20 3.2697 	-0.0981683 	-4.75581e-20 3.26884 	-0.0971673 	-2.25316e-20 3.2778 	-0.0953537 	-1.0107e-20 3.28141 	-0.0940996 	2.30455e-21 3.28505 	-0.0928481 	1.4715e-20 3.28873 	-0.0915992 	2.71245e-20 3.28856 	-0.0905953 	3.46595e-20 3.29637 	-0.0889696 	5.71928e-20 3.29981 	-0.0877799 	5.21648e-20 3.3033 	-0.0865924 	4.7152e-20 3.30681 	-0.0854073 	4.21544e-20 3.30728 	-0.0844066 	1.67666e-20 3.31401 	-0.0829491 	1.23479e-20 3.3173 	-0.0818204 	4.10801e-21 3.32063 	-0.0806937 	-4.13198e-21 3.32398 	-0.079569 	-1.2372e-20 3.32505 	-0.0785768 	-1.77414e-20 3.33076 	-0.0772697 	-1.55911e-20 3.3339 	-0.0761989 	-1.15286e-20 3.33707 	-0.0751299 	-7.46505e-21 3.34027 	-0.0740627 	-3.40038e-21 3.34188 	-0.0730835 	1.32291e-21 3.34664 	-0.0719106 	6.97068e-21 3.34963 	-0.0708948 	1.5259e-20 3.35265 	-0.0698806 	2.35454e-20 3.3557 	-0.068868 	3.18299e-20 3.35781 	-0.0679057 	4.01115e-20 3.36169 	-0.0668527 	4.70489e-20 3.36453 	-0.0658891 	5.55467e-20 3.3674 	-0.0649269 	6.4039e-20 3.3703 	-0.0639663 	7.25257e-20 3.37287 	-0.0630241 	8.18726e-20 3.37491 	-0.0624296 	7.61434e-20 3.37656 	-0.0618667 	7.12795e-20 3.37823 	-0.0613042 	6.64136e-20 3.3799 	-0.0607422 	6.15456e-20 3.3818 	-0.06011 	5.60624e-20 3.38282 	-0.0597738 	5.32086e-20 3.38384 	-0.0594377 	5.03537e-20 3.38486 	-0.0591019 	4.74975e-20 3.38589 	-0.0587662 	4.46401e-20 3.38671 	-0.0584481 	4.08997e-20 3.38944 	-0.05757 	3.2538e-20 3.39199 	-0.0567029 	2.42576e-20 3.39458 	-0.055837 	1.59789e-20 3.39719 	-0.0549722 	7.70186e-21 3.39904 	-0.0541673 	2.86234e-22 3.40215 	-0.0533109 	7.48388e-21 3.40457 	-0.0524888 	1.55383e-20 3.40702 	-0.0516677 	2.35943e-20 3.40949 	-0.0508477 	3.1652e-20 3.41069 	-0.0501206 	3.92404e-20 3.41414 	-0.0492885 	3.86231e-20 3.41642 	-0.0485092 	3.84797e-20 3.41873 	-0.0477308 	3.83394e-20 3.42107 	-0.0469533 	3.8202e-20 3.42167 	-0.0462948 	3.87039e-20 3.42541 	-0.0454894 	3.79041e-20 3.42757 	-0.0447507 	3.77377e-20 3.42975 	-0.0440129 	3.75742e-20 3.43195 	-0.0432759 	3.74136e-20 3.43201 	-0.0426777 	3.96231e-20 3.43601 	-0.0419006 	5.02415e-20 3.43804 	-0.0412006 	5.0623e-20 3.44009 	-0.0405014 	5.09962e-20 3.44217 	-0.0398028 	5.13614e-20 3.44173 	-0.0392577 	3.69702e-20 3.44595 	-0.0385101 	9.3266e-21 3.44786 	-0.0378469 	-7.25688e-21 3.44979 	-0.0371843 	-2.38301e-20 3.45174 	-0.0365224 	-4.0393e-20 3.45085 	-0.0360239 	-4.13517e-20 3.45526 	-0.0353067 	-5.89227e-20 3.45705 	-0.0346784 	-6.71516e-20 3.45885 	-0.0340507 	-7.53744e-20 3.46068 	-0.0334235 	-8.35911e-20 3.45939 	-0.0329656 	-7.92324e-20 3.46396 	-0.0322794 	-9.6782e-20 3.46563 	-0.0316843 	-8.12856e-20 3.46732 	-0.0310896 	-6.5773e-20 3.46903 	-0.0304954 	-5.02442e-20 3.46738 	-0.0300732 	-3.96014e-21 3.47206 	-0.0294181 	1.08218e-20 3.47362 	-0.0288544 	2.68188e-20 3.4752 	-0.028291 	4.28181e-20 3.47679 	-0.0277281 	5.88196e-20 3.47483 	-0.0273368 	7.22044e-20 3.4796 	-0.0267129 	6.41025e-20 3.48105 	-0.0261788 	5.60083e-20 3.48252 	-0.0256451 	4.79173e-20 3.484 	-0.0251118 	3.98294e-20 3.48176 	-0.0247475 	3.44736e-20 3.4866 	-0.0241545 	3.43902e-20 3.48794 	-0.0236485 	3.42846e-20 3.4893 	-0.0231428 	3.4181e-20 3.49068 	-0.0226374 	3.40794e-20 3.4882 	-0.0222966 	3.54123e-20 3.49306 	-0.0217338 	6.18068e-20 3.4943 	-0.0212544 	6.98466e-20 3.49556 	-0.0207752 	7.78818e-20 3.49683 	-0.0202963 	8.59122e-20 3.49415 	-0.0199758 	6.92357e-20 3.49903 	-0.0194428 	5.76822e-20 3.50017 	-0.0189884 	4.17795e-20 3.50132 	-0.0185343 	2.58786e-20 3.5025 	-0.0180805 	9.97941e-21 3.49965 	-0.0177775 	-2.94482e-21 3.5045 	-0.0172734 	1.38781e-20 3.50555 	-0.0168428 	-1.75648e-21 3.50661 	-0.0164124 	-1.73995e-20 3.50769 	-0.0159822 	-3.30509e-20 3.50471 	-0.0156946 	-7.26416e-20 3.50951 	-0.0152187 	-7.11085e-20 3.51047 	-0.0148106 	-3.97897e-20 3.51144 	-0.01440