# vtk DataFile Version 2.0
track0
ASCII
DATASET POLYDATA
POINTS 12278 float
-0.0205 0.001 1e-05
-0.02052 0.000999216 1e-05
-0.02054 0.000998592 1e-05
-0.02056 0.000998126 1e-05
-0.02058 0.000997818 1e-05
-0.0206 0.000997665 1e-05
-0.0205 0.00367778 1e-05
-0.02052 0.00367703 1e-05
-0.02054 0.00367643 1e-05
-0.02056 0.00367599 1e-05
-0.02058 0.00367569 1e-05
-0.0206 0.00367554 1e-05
-0.0205 0.00635556 1e-05
-0.02052 0.00635527 1e-05
-0.02054 0.00635505 1e-05
-0.02056 0.00635488 1e-05
-0.02058 0.00635476 1e-05
-0.0206 0.00635471 1e-05
-0.0205 0.00903333 1e-05
-0.02052 0.00903311 1e-05
-0.02054 0.00903293 1e-05
-0.02056 0.0090328 1e-05
-0.02058 0.00903271 1e-05
-0.0206 0.00903266 1e-05
-0.0205 0.0117111 1e-05
-0.02052 0.0117111 1e-05
-0.02054 0.011711 1e-05
-0.02056 0.011711 1e-05
-0.02058 0.011711 1e-05
-0.0206 0.011711 1e-05
-0.0205 0.0143889 1e-05
-0.02052 0.014389 1e-05
-0.02054 0.014389 1e-05
-0.02056 0.0143891 1e-05
-0.02058 0.0143891 1e-05
-0.0206 0.0143891 1e-05
-0.0205 0.0170667 1e-05
-0.02052 0.017067 1e-05
-0.02054 0.0170672 1e-05
-0.02056 0.0170674 1e-05
-0.02058 0.0170675 1e-05
-0.0206 0.0170676 1e-05
-0.0205 0.0197444 1e-05
-0.02052 0.019745 1e-05
-0.02054 0.0197454 1e-05
-0.02056 0.0197457 1e-05
-0.02058 0.0197459 1e-05
-0.0206 0.019746 1e-05
-0.0205 0.0224222 1e-05
-0.02052 0.022423 1e-05
-0.02054 0.0224236 1e-05
-0.02056 0.0224241 1e-05
-0.02058 0.0224244 1e-05
-0.0206 0.0224245 1e-05
-0.0205 0.0251 1e-05
-0.02052 0.0251003 1e-05
-0.02054 0.0251005 1e-05
-0.02056 0.0251007 1e-05
-0.02058 0.0251008 1e-05
-0.0206 0.0251008 1e-05
-0.0205 0.001 1e-05
-0.0203632 0.00100536 1e-05
-0.0202266 0.00101331 1e-05
-0.0200901 0.00102296 1e-05
-0.0200427 0.00102682 1e-05
-0.0198376 0.00104418 1e-05
-0.0196338 0.00107322 1e-05
-0.0194327 0.00111734 1e-05
-0.0192368 0.00118024 1e-05
-0.0190172 0.00124951 1e-05
-0.0189002 0.00128348 1e-05
-0.0187827 0.00131598 1e-05
-0.0186649 0.001347 1e-05
-0.0185469 0.001377 1e-05
-0.0183807 0.00141936 1e-05
-0.0182041 0.00146458 1e-05
-0.0180267 0.00150692 1e-05
-0.0178487 0.0015464 1e-05
-0.0176703 0.00158389 1e-05
-0.0174976 0.00161991 1e-05
-0.0172846 0.00166394 1e-05
-0.0170715 0.00170741 1e-05
-0.0168583 0.00175029 1e-05
-0.0166449 0.00179219 1e-05
-0.0163945 0.00184007 1e-05
-0.0163234 0.00185324 1e-05
-0.0162522 0.00186629 1e-05
-0.016181 0.00187921 1e-05
-0.0161097 0.00189201 1e-05
-0.0160387 0.0019046 1e-05
-0.0157586 0.0019535 1e-05
-0.0154779 0.00199931 1e-05
-0.0151968 0.00204225 1e-05
-0.0149154 0.00208283 1e-05
-0.0146381 0.00212134 1e-05
-0.0143838 0.00215527 1e-05
-0.0141293 0.00218766 1e-05
-0.0138747 0.00221855 1e-05
-0.0136198 0.00224797 1e-05
-0.0132934 0.00228369 1e-05
-0.0132791 0.00228515 1e-05
-0.0132648 0.0022866 1e-05
-0.0132504 0.00228805 1e-05
-0.0132361 0.0022895 1e-05
-0.0132214 0.00229098 1e-05
-0.0129776 0.00231543 1e-05
-0.0127337 0.00233865 1e-05
-0.0124897 0.00236061 1e-05
-0.0122456 0.0023813 1e-05
-0.0120025 0.00240058 1e-05
-0.0117547 0.00241909 1e-05
-0.0115067 0.00243627 1e-05
-0.0112587 0.00245231 1e-05
-0.0110106 0.00246734 1e-05
-0.0107632 0.00248136 1e-05
-0.0105252 0.00249391 1e-05
-0.0102872 0.00250547 1e-05
-0.0100491 0.00251602 1e-05
-0.00981105 0.00252575 1e-05
-0.00957337 0.00253472 1e-05
-0.00934491 0.00254261 1e-05
-0.00911643 0.00254974 1e-05
-0.00888792 0.00255611 1e-05
-0.0086594 0.00256172 1e-05
-0.00843108 0.00256669 1e-05
-0.00821175 0.00257085 1e-05
-0.00799241 0.00257439 1e-05
-0.00777306 0.00257731 1e-05
-0.0075537 0.00257953 1e-05
-0.00733443 0.00258115 1e-05
-0.00712387 0.00258213 1e-05
-0.0069133 0.00258256 1e-05
-0.00670273 0.00258244 1e-05
-0.00649216 0.00258162 1e-05
-0.0062816 0.00258018 1e-05
-0.00607944 0.0025782 1e-05
-0.0058773 0.00257566 1e-05
-0.00567516 0.00257257 1e-05
-0.00547303 0.00256875 1e-05
-0.00527083 0.0025642 1e-05
-0.00507675 0.00255913 1e-05
-0.00488269 0.00255344 1e-05
-0.00468865 0.00254712 1e-05
-0.00449464 0.00253998 1e-05
-0.00430044 0.00253192 1e-05
-0.00411412 0.0025233 1e-05
-0.00392784 0.00251389 1e-05
-0.00374159 0.0025037 1e-05
-0.0035554 0.00249256 1e-05
-0.00336883 0.00248017 1e-05
-0.00318995 0.00246713 1e-05
-0.00301115 0.00245301 1e-05
-0.00283245 0.00243776 1e-05
-0.00265386 0.00242123 1e-05
-0.00247443 0.00240316 1e-05
-0.0023027 0.00238428 1e-05
-0.00213114 0.00236386 1e-05
-0.00195982 0.00234156 1e-05
-0.00178875 0.0023174 1e-05
-0.00161577 0.00229108 1e-05
-0.00161565 0.00229106 1e-05
-0.00161552 0.00229104 1e-05
-0.0016154 0.00229102 1e-05
-0.00161528 0.002291 1e-05
-0.00161515 0.00229098 1e-05
-0.00145041 0.00226408 1e-05
-0.00128606 0.00223482 1e-05
-0.00112214 0.00220327 1e-05
-0.000958667 0.00216948 1e-05
-0.000791418 0.00213239 1e-05
-0.000633135 0.00209428 1e-05
-0.000475556 0.00205335 1e-05
-0.000318719 0.00200967 1e-05
-0.000162834 0.0019627 1e-05
0 0.00190954 1e-05
3.73559e-05 0.00189634 1e-05
7.46118e-05 0.00188285 1e-05
0.000111769 0.0018691 1e-05
0.000148829 0.00185509 1e-05
0.000179148 0.00184338 1e-05
0.000248996 0.00181594 1e-05
0.000318433 0.00178749 1e-05
0.000387445 0.00175801 1e-05
0.000456018 0.00172753 1e-05
0.000528387 0.00169416 1e-05
0.000634886 0.00164318 1e-05
0.000740278 0.00158995 1e-05
0.00084451 0.00153449 1e-05
0.00094762 0.00147696 1e-05
0.00101994 0.00143469 1e-05
0.00102813 0.00142974 1e-05
0.00103631 0.00142477 1e-05
0.00104448 0.00141979 1e-05
0.00105264 0.0014148 1e-05
0.00106088 0.00140973 1e-05
0.00116821 0.00134355 1e-05
0.00127404 0.00127499 1e-05
0.00137827 0.00120404 1e-05
0.00148099 0.0011309 1e-05
0.00159674 0.00104511 1e-05
0.00159689 0.00104499 1e-05
0.00159705 0.00104487 1e-05
0.00159721 0.00104475 1e-05
0.00159736 0.00104462 1e-05
0.00159752 0.0010445 1e-05
0.00169219 0.000970927 1e-05
0.00178547 0.000895584 1e-05
0.00187726 0.000818442 1e-05
0.00196763 0.000739646 1e-05
0.00203803 0.000676367 1e-05
0.00205809 0.000657883 1e-05
0.00207807 0.00063931 1e-05
0.00209796 0.000620647 1e-05
0.00211779 0.000601921 1e-05
0.00213833 0.000582413 1e-05
0.00219147 0.000531589 1e-05
0.00224411 0.000480248 1e-05
0.00229624 0.000428383 1e-05
0.00234783 0.000375986 1e-05
0.00239413 0.000328255 1e-05
0.00245197 0.000267799 1e-05
0.00250918 0.000206744 1e-05
0.00256576 0.000145106 1e-05
0.00262183 8.30015e-05 1e-05
0.00268334 1.36852e-05 1e-05
0.00268572 1.09482e-05 1e-05
0.0026881 8.21011e-06 1e-05
0.00269048 5.47103e-06 1e-05
0.00269286 2.73093e-06 1e-05
0.00269522 0 1e-05
0.00275912 -7.37368e-05 1e-05
0.0028224 -0.000148005 1e-05
0.00288504 -0.000222813 1e-05
0.00294701 -0.000298173 1e-05
0.00300409 -0.000368654 1e-05
0.00304979 -0.000425928 1e-05
0.00309518 -0.000483448 1e-05
0.00314026 -0.00054121 1e-05
0.00318509 -0.000599167 1e-05
0.00323259 -0.000661136 1e-05
0.00325064 -0.000684928 1e-05
0.00326864 -0.000708759 1e-05
0.00328658 -0.00073263 1e-05
0.00330448 -0.000756542 1e-05
0.00332203 -0.00078009 1e-05
0.00339017 -0.000871877 1e-05
0.00345771 -0.000964107 1e-05
0.00352463 -0.00105679 1e-05
0.003591 -0.00114986 1e-05
0.00365387 -0.00123896 1e-05
0.00368031 -0.00127684 1e-05
0.00370669 -0.00131478 1e-05
0.00373298 -0.00135277 1e-05
0.00375923 -0.0013908 1e-05
0.00378611 -0.00142986 1e-05
0.00383009 -0.00149398 1e-05
0.00387387 -0.00155825 1e-05
0.00391742 -0.00162267 1e-05
0.00396074 -0.00168724 1e-05
0.0040029 -0.00175044 1e-05
0.00407111 -0.00185326 1e-05
0.0041389 -0.00195637 1e-05
0.00420626 -0.00205975 1e-05
0.00427334 -0.00216332 1e-05
0.00434393 -0.00227299 1e-05
0.00434998 -0.00228245 1e-05
0.00435603 -0.00229192 1e-05
0.00436207 -0.00230139 1e-05
0.00436811 -0.00231086 1e-05
0.00437413 -0.0023203 1e-05
0.00445497 -0.00244725 1e-05
0.00453537 -0.00257449 1e-05
0.00461536 -0.00270197 1e-05
0.00469501 -0.00282968 1e-05
0.00477288 -0.00295498 1e-05
0.00479952 -0.002998 1e-05
0.00482614 -0.00304103 1e-05
0.00485273 -0.00308408 1e-05
0.00487931 -0.00312714 1e-05
0.00490609 -0.00317052 1e-05
0.00496672 -0.00326874 1e-05
0.00502721 -0.00336706 1e-05
0.00508754 -0.00346546 1e-05
0.00514774 -0.00356395 1e-05
0.00520739 -0.00366161 1e-05
0.00526044 -0.00374852 1e-05
0.00531344 -0.00383545 1e-05
0.00536641 -0.00392242 1e-05
0.0054194 -0.00400936 1e-05
0.00547262 -0.00409657 1e-05
0.00551559 -0.00416688 1e-05
0.00555853 -0.00423721 1e-05
0.00560143 -0.00430756 1e-05
0.00564432 -0.00437792 1e-05
0.00568714 -0.00444811 1e-05
0.00575842 -0.00456487 1e-05
0.00582975 -0.00468159 1e-05
0.00590113 -0.00479829 1e-05
0.00597264 -0.00491491 1e-05
0.00604356 -0.00503009 1e-05
0.0060798 -0.00508872 1e-05
0.00611606 -0.00514735 1e-05
0.00615232 -0.00520597 1e-05
0.0061886 -0.00526458 1e-05
0.006225 -0.00532326 1e-05
0.00630378 -0.00545005 1e-05
0.00638276 -0.00557672 1e-05
0.00646193 -0.00570326 1e-05
0.00654138 -0.00582964 1e-05
0.00661893 -0.0059522 1e-05
0.00666281 -0.0060211 1e-05
0.00670675 -0.00608996 1e-05
0.00675074 -0.0061588 1e-05
0.00679481 -0.00622758 1e-05
0.00683926 -0.00629671 1e-05
0.00691117 -0.00640815 1e-05
0.00698332 -0.00651943 1e-05
0.00705574 -0.00663054 1e-05
0.00712845 -0.00674146 1e-05
0.00719878 -0.00684796 1e-05
0.00726944 -0.00695417 1e-05
0.00734032 -0.00706024 1e-05
0.00741143 -0.00716616 1e-05
0.00748285 -0.00727187 1e-05
0.00755579 -0.00737909 1e-05
0.00760126 -0.00744544 1e-05
0.00764686 -0.00751171 1e-05
0.00769258 -0.00757788 1e-05
0.00773844 -0.00764397 1e-05
0.00778313 -0.00770805 1e-05
0.00790091 -0.00787603 1e-05
0.00801946 -0.00804347 1e-05
0.00813878 -0.00821036 1e-05
0.0082591 -0.00837653 1e-05
0.00837203 -0.00853045 1e-05
0.00837968 -0.00854074 1e-05
0.00838734 -0.00855102 1e-05
0.00839499 -0.00856131 1e-05
0.00840266 -0.00857159 1e-05
0.00841034 -0.00858189 1e-05
0.00852138 -0.00873062 1e-05
0.00863323 -0.00887873 1e-05
0.00874593 -0.00902619 1e-05
0.0088595 -0.009173 1e-05
0.00896551 -0.00930816 1e-05
0.00903005 -0.00938939 1e-05
0.00909485 -0.00947042 1e-05
0.00915992 -0.00955123 1e-05
0.00922529 -0.00963179 1e-05
0.00929282 -0.00971438 1e-05
0.00934698 -0.00978008 1e-05
0.00940133 -0.00984562 1e-05
0.00945588 -0.009911 1e-05
0.00951062 -0.00997621 1e-05
0.0095636 -0.0100389 1e-05
[...]
POINT_DATA 12278
 FIELD attributes 2
p 1 12278 float
177014 177096 177169 177232 177286 177331
108948 108966 108982 108996 109009 109019
87754.4 87764 87773.4 87782.5 87791.5 87799.9
79936.7 79943 79949.2 79955.4 79961.4 79967.4
77145.8 77155 77164.2 77173.5 77182.7 77191.9
77563.2 77576.8 77590.3 77603.9 77617.4 77631
81096.4 81108.8 81121 81133.1 81145 81156.8
90922.8 90942.6 90961.6 90979.9 90997.5 91014.4
117355 117387 117418 117446 117472 117496
215474 215284 215092 214898 214702 214504
177014 173409 169082 164504 162837 158906 155523 152872 144707 134666 129223 123795 119856 119246 118394 112348 106449 102327 101432 100565 99582.8 98600.5 97173.9 95705.6 93990 93623.5 93256.5 92888.9 92407.9 91910.2 89990.7 88186.8 86672.8 85885.4 85108.7 84422.9 83758.1 83108.3 82456.6 81622.6 81587.7 81558.8 81530.8 81502.7 81473.9 80941.1 80408.8 79877 79345.7 78920.6 78494.4 78085.2 77687.6 77311.9 76946 76596 76245.7 75922 75620.6 75319.5 75030 74740.3 74461.8 74199 73936.4 73682.7 73429 73179 72942.8 72706.7 72477.8 72248.9 72018.4 71798.9 71579.7 71366.1 71152.5 70933.9 70723.1 70512.4 70305.2 70098.3 69885.4 69672.9 69460.8 69248.9 69037.4 68822.2 68594.2 68366.6 68133.7 67898 67653.9 67401.3 67135.4 66855.1 66541.4 66229.2 65918.6 65605.6 65605.3 65605 65604.7 65604.3 65604 65212.8 64827.4 64447.5 64049.5 63569.5 63054 62544.3 61843.3 61070.2 60257 60008.7 59770.7 59543.6 59317 59131.6 58574.8 58015.9 57454.8 56981.6 56513.4 55908.8 55306.1 54766.3 54225.2 53840.5 53782.5 53724.3 53669.1 53621.5 53573.3 53020.2 52459.8 51941.8 51469.5 50923.9 50922.9 50921.9 50921.1 50920.3 50919.5 50492.4 50057.7 49655.2 49319.7 49050.7 48951.5 48851.9 48781.1 48711.4 48638.9 48450.4 48259.6 48066.9 47922.5 47790.4 47617.7 47449.1 47309.4 47167.7 47008.5 47002 46995.6 46989.2 46983.3 46977.8 46872.5 46760.2 46645.5 46532.2 46425.3 46389.7 46353 46313.4 46273.1 46229.3 46209.1 46188.8 46168.4 46147.2 46126.1 46100.8 46074 46037 45994.7 45953.1 45955.5 45957.7 45957 45956.1 45955.2 45943.9 45932.2 45920.1 45905 45889.8 45899.6 45908.7 45913.2 45917.2 45920.9 45920 45919.2 45918.3 45917.3 45916.2 45929.7 45943.4 45956 45966.8 45977.1 45987.3 45997.6 46007.4 46017.1 46026.8 46038.4 46049.7 46061 46072 46083 46101.4 46119.8 46138.3 46156.8 46175.4 46184 46192.5 46201.2 46210.3 46219.4 46242.1 46264.8 46288.2 46312.1 46335.8 46343.2 46350.6 46358.4 46366.6 46374.9 46398.1 46421.4 46445.6 46470.8 46495.6 46504.5 46513.4 46523.1 46533.3 46543.6 46563.2 46583 46603.4 46625.3 46646.5 46660.4 46674.3 46690 46706.3 46723 46734.5 46746.1 46757.8 46770.5 46782.9 46804.8 46826.9 46852.4 46878.6 46904.5 46905.6 46906.7 46908.1 46909.4 46910.8 46932 46953.4 46975.2 46999.1 47021.4 47031 47040.6 47051.6 47062.6 47074 47083.7 47093.5 47103.3 47113.7 47123.8 47141 47158.4 47177.3 47197.2 47216.5 47219.1 47221.7 47224.6 47227.6 47230.5 47244.9 47259.3 47273.9 47289.5 47304.4 47318.1 47332.3 47347.8 47363.4 47380.2 47380.3 47380.4 47380.5 47380.6 47380.7 47395.3 47410 47424.8 47440.7 47455.9 47468 47480.6 47494.2 47507.8 47521 47521.6 47522.2 47522.9 47523.5 47524.2 47536 47547.9 47559.8 47572.4 47584.9 47595.2 47605.5 47617.1 47629.3 47641.3 47645.3 47649.7 47654.4 47659 47663.9 47669.8 47675.7 47681.6 47687.7 47694.1 47702.9 47712 47721.7 47732.6 47743.1 47750.7 47758.8 47767.7 47776.6 47785.8 47787.9 47790.3 47792.9 47795.4 47798 47803.4 47808.8 47814.2 47819.7 47825.7 47831.9 47838.5 47845.4 47853.5 47861.3 47866.4 47871.4 47877.6 47884.3 47891 47894.6 47899.3 47903.9 47908.6 47913.9 47914.1 47914.4 47914.6 47914.9 47915.2 47919.3 47923.4 47927.6 47931.7 47936.8 47939.1 47941.6 47944.6 47948.5 47952.3 47953.5 47954.6 47956.5 47959.3 47962 47961.9 47962.4 47963.3 47964.1 47965.6 47964.7 47964.5 47964.2 47963.9 47963.5 47963.5 47963.5 47963.4 47963.4 47963.5 47962.1 47960.8 47959.4 47958 47957.2 47954 47951.5 47948.9 47946.6 47944.8 47940.5 47936.2 47932.4 47929.4 47926.3 47920.8 47915.3 47910.3 47906.1 47901.8 47895.1 47888.6 47882.5 47876.8 47871.3 47863.6 47856.2 47848.9 47841.7 47835 47826.3 47817.9 47809.5 47801.1 47793 47784.5 47776 47767.6 47759.1 47749.3 47748.5 47747.8 47747 47746.3 47745.6 47735.1 47724.7 47714.2 47703.7 47693.4 47681.6 47670.2 47658.7 47647.1 47635.9 47622.9 47610.4 47597.9 47585.4 47573.1 47559.2 47545.5 47532.1 47518.7 47505.4 47490.5 47475.8 47461.4 47447.1 47432.8 47417.1 47401.4 47386.1 47370.9 47355.7 47339.1 47322.6 47306.3 47290.2 47274.2 47256.8 47239.5 47222.3 47205.4 47188.4 47170.3 47152.2 47134.2 47116.5 47098.7 47079.9 47061.1 47042.2 47023.7 47005.2 46985.7 46966.2 46946.7 46927.4 46908.2 46888 46867.9 46847.6 46827.6 46807.7 46786.9 46766.1 46745.3 46724.6 46704 46682.7 46661.3 46639.9 46618.5 46597.3 46575.5 46553.5 46531.5 46509.5 46487.8 46465.4 46442.9 46420.4 46397.8 46375.5 46352.7 46329.7 46306.7 46283.6 46260.8 46237.5 46214 46190.5 46167 46143.7 46119.9 46096 46072.1 46048.2 46024.4 46000.2 45975.9 45951.6 45927.2 45903 45878.4 45853.7 45829 45804.3 45779.7 45754.7 45729.6 45704.6 45679.5 45654.5 45629.2 45603.8 45578.4 45553 45527.6 45502 45476.2 45450.5 45424.8 45399.1 45373.2 45347.1 45321.1 45295.1 45269.1 45242.9 45216.6 45190.3 45164 45137.7 45111.2 45084.6 45058 45031.4 45004.9 44978.1 44951.3 44924.5 44897.7 44870.8 44843.8 44816.8 44789.7 44762.6 44735.6 44708.3 44681 44653.8 44626.5 44599.2 44571.7 44544.2 44516.7 44489.2 44461.7 44434 44406.3 44378.6 44350.9 44323.1 44295.3 44267.3 44239.4 44211.5 44183.6 44155.5 44127.4 44099.3 44071.2 44043.1 44014.8 43986.5 43958.2 43929.9 43901.6 43873.2 43844.7 43816.2 43787.7 43759.2 43730.6 43702 43673.3 43644.6 43616 43587.2 43558.3 43529.5 43500.7 43471.8 43442.8 43413.8 43384.8 43355.8 43326.8 43297.7 43268.5 43239.3 43210.1 43180.9 43151.6 43122.3 43092.9 43063.6 43034.2 43004.7 42975.2 42945.7 42916.1 42886.6 42856.9 42827.3 42797.6 42767.9 42738.2 42708.3 42678.5 42648.6 42618.7 42588.9 42558.9 42528.8 42498.8 42468.7 42438.7 42408.5 42378.3 42348.1 42317.9 42287.6 42257.3 42226.9 42196.5 42166.1 42135.7 42105.2 42074.6 42044 42013.5 41982.9 41952.2 41921.4 41890.7 41859.9 41829.1 41798.2 41767.3 41736.4 41705.4 41674.5 41643.4 41612.3 41581.1 41550 41518.9 41487.6 41456.3 41425 41393.6 41362.3 41330.8 41299.3 41267.8 41236.3 41204.7 41173.1 41141.4 41109.7 41077.9 41046.2 41014.3 40982.4 40950.5 40918.6 40886.6 40854.6 40822.5 40790.3 40758.2 40726.1 40693.8 40661.4 40629.1 40596.8 40564.4 40531.9 40499.4 40466.8 40434.3 40401.7 40369 40336.2 40303.5 40270.7 40237.9 40205 40172 40139 40106 40073 40039.8 40006.6 39973.4 39940.2 39906.9 39873.5 39840.1 39806.6 39773.2 39739.7 39706.1 39672.4 39638.7 39605.1 39571.3 39537.5 39503.6 39469.7 39435.7 39401.8 39367.7 39333.5 39299.4 39265.2 39231 39196.7 39162.3 39127.9 39093.5 39059 39024.4 38989.8 38955.1 38920.5 38885.7 38850.9 38816 38781.1 38746.2 38711.2 38676.1 38641 38605.8 38570.7 38535.4 38500.1 38464.7 38429.2 38393.8 38358.3 38322.7 38287 38251.4 38215.7 38179.9 38144 38108.1 38072.2 38036.2 38000.2 37964 37927.8 37891.6 37855.4 37819.1 37782.7 37746.2 37709.7 37673.2 37636.6 37599.9 37563.2 37526.4 37489.6 37452.8 37415.8 37378.8 37341.7 37304.7 37267.5 37230.3 37193 37155.6 37118.3 37080.9 37043.3 37005.7 36968.1 36930.5 36892.8 36855 36817.1 36779.2 36741.2 36703.3 36665.1 36627 36588.8 36550.6 36512.3 36473.9 36435.4 36396.9 36358.4 36319.8 36281.1 36242.4 36203.6 36164.8 36125.9 36086.9 36047.8 36008.8 35969.6 35930.5 35891.2 35851.8 35812.4 35773 35733.5 35693.9 35654.3 35614.6 35574.8 35535.1 35495.1 35455.2 35415.2 35375.1 35335 35294.8 35254.5 35214.2 35173.9 35133.5 35092.9 35052.4 35011.7 34971.1 34930.4 34889.5 34848.6 34807.7 34766.7 34725.7 34684.5 34643.3 34602 34560.7 34519.4 34477.9 34436.3 34394.8 34353.1 34311.5 34269.6 34227.8 34185.9 34143.9 34101.9 34059.8 34017.6 33975.4 33933.1 33890.8 33848.3 33805.8 33763.3 33720.6 33678 33635.2 33592.4 33549.5 33506.5 33463.6 33420.4 33377.3 33334 33290.7 33247.4 33204 33160.5 33116.9 33073.3 33029.6 32985.8 32942 32898.1 32854.1 32810.1 32766 32721.8 32677.6 32633.3 32588.9 32544.4 32499.9 32455.3 32410.7 32366 32321.2 32276.3 32231.4 32186.4 32141.3 32096.1 32050.9 32005.7 31960.3 31914.9 31869.4 31823.8 31778.2 31732.5 31686.8 31640.9 31594.9 31548.9 31502.9 31456.8 31410.5 31364.3 31317.9 31271.5 31225.1 31178.4 31131.8 31085.1 31038.3 30991.5 30944.5 30897.5 30850.5 30803.3 30756.2 30708.8 30661.4 30614 30566.5 30518.9 30471.2 30423.5 30375.7 30327.8 30279.9 30231.8 30183.7 30135.5 30087.2 30039 29990.5 29942 29893.4 29844.8 29796.2 29747.3 29698.4 29649.5 29600.5 29551.5 29502.2 29453 29403.7 29354.3 29304.9 29255.2 29205.6 29155.9 29106.1 29056.3 29006.3 28956.3 28906.2 28856 28805.8 28755.4 28705 28654.5 28603.9 28553.3 28502.5 28451.7 28400.8 28349.8 28298.8 28247.6 28196.4 28145.1 28093.7 28042.4 27990.7 27939.1 27887.4 27835.6 27783.8 27731.8 27679.7 27627.6 27575.4 27523.2 27470.8 27418.3 27365.8 27313.2 27260.5 27207.7 27154.8 27101.8 27048.8 26995.8 26942.5 26889.1 26835.8 26782.3 26728.9 26675.1 26621.4 26567.6 26513.7 26459.8 26405.7 26351.5 26297.3 26243 26188.7 26134.2 26079.6 26025 25970.3 25915.6 25860.6 25805.6 25750.6 25695.6 25640.5 25585.1 25529.8 25474.5 25419.1 25363.7 25308 25252.4 25196.8 25141.1 25085.5 25029.6 24973.8 24918.1 24862.4 24806.6 24750.7 24694.9 24639.2 24583.6 24527.9 24472.2 24416.9 24361.8 24306.7 24252 24197.3 24142.4 24087.4 24032.4 23977 23922.3 23873.6 23825 23776.4 23732.6 23683.4 23618.1 23552.6 23487.1 23412.6 23361.4 23331 23301 23271.2 23257 23252.8 23248.7 23244.5 23240.3 23238.8 23236.2 23230.9 23225.7 23220.4 23214.7 23187.7 23160.5 23133.1 23105.4 23061.8 22985.9 22916.9 22848 22779.1 22722.8 22671.7 22615.4 22559 22502.7 22440 22372.2 22304.2 22236.1 22168 22099.5 22028.2 21955 21881.7 21808.5 21733.1 21654.9 21575.1 21495.3 21415.5 21334.1 21249.8 21163.7 21077.5 20991.4 20903.4 20812.4 20719.5 20626.5 20533.5 20438.7 20340.6 20240.4 20140.1 20039.7 19937.4 19831.5 19723.3 19615 19506.6 19396.1 19281.8 19164.7 19047.5 18930.2 18810.4 18686.4 18559.7 18432.8 18305.7 18176.3 18042.2 17904.3 17766.1 17627.8 17485.9 17339 17189.3 17039.4 16889.5 16737.2 16579.4 16414.8 16249.9 16084.7 15913.2 15735.5 15557.3 15379.2 15201 15023 14838.3 14638.8 14438.5 14237.4 14022.1 13798.9 13585.8 13373.3 13161.4 12960 12751.2 12503.7 12253.9 12002 11712.7 11412.6 11157.2 10904.7 10654.9 10450.2 10237.6 9921.65 9598.07 9265.91 8833.22 8384.24 8071.47 7773.86 7494.28 7349.17 7198.14 6801.67 6357.21 5838.96 5089.59 4311.3 3779.13 3398.21 3250.88 3316.62 3382.93 3362.02 2777.11 1388.15 0