# vtk DataFile Version 2.0
track0
ASCII
DATASET POLYDATA
POINTS 12278 float
-0.0205 0.001 1e-05
-0.02052 0.000999216 1e-05
-0.02054 0.000998592 1e-05
-0.02056 0.000998126 1e-05
-0.02058 0.000997818 1e-05
-0.0206 0.000997665 1e-05
-0.0205 0.00367778 1e-05
-0.02052 0.00367703 1e-05
-0.02054 0.00367643 1e-05
-0.02056 0.00367599 1e-05
-0.02058 0.00367569 1e-05
-0.0206 0.00367554 1e-05
-0.0205 0.00635556 1e-05
-0.02052 0.00635527 1e-05
-0.02054 0.00635505 1e-05
-0.02056 0.00635488 1e-05
-0.02058 0.00635476 1e-05
-0.0206 0.00635471 1e-05
-0.0205 0.00903333 1e-05
-0.02052 0.00903311 1e-05
-0.02054 0.00903293 1e-05
-0.02056 0.0090328 1e-05
-0.02058 0.00903271 1e-05
-0.0206 0.00903266 1e-05
-0.0205 0.0117111 1e-05
-0.02052 0.0117111 1e-05
-0.02054 0.011711 1e-05
-0.02056 0.011711 1e-05
-0.02058 0.011711 1e-05
-0.0206 0.011711 1e-05
-0.0205 0.0143889 1e-05
-0.02052 0.014389 1e-05
-0.02054 0.014389 1e-05
-0.02056 0.0143891 1e-05
-0.02058 0.0143891 1e-05
-0.0206 0.0143891 1e-05
-0.0205 0.0170667 1e-05
-0.02052 0.017067 1e-05
-0.02054 0.0170672 1e-05
-0.02056 0.0170674 1e-05
-0.02058 0.0170675 1e-05
-0.0206 0.0170676 1e-05
-0.0205 0.0197444 1e-05
-0.02052 0.019745 1e-05
-0.02054 0.0197454 1e-05
-0.02056 0.0197457 1e-05
-0.02058 0.0197459 1e-05
-0.0206 0.019746 1e-05
-0.0205 0.0224222 1e-05
-0.02052 0.022423 1e-05
-0.02054 0.0224236 1e-05
-0.02056 0.0224241 1e-05
-0.02058 0.0224244 1e-05
-0.0206 0.0224245 1e-05
-0.0205 0.0251 1e-05
-0.02052 0.0251003 1e-05
-0.02054 0.0251005 1e-05
-0.02056 0.0251007 1e-05
-0.02058 0.0251008 1e-05
-0.0206 0.0251008 1e-05
-0.0205 0.001 1e-05
-0.0203632 0.00100536 1e-05
-0.0202266 0.00101331 1e-05
-0.0200901 0.00102296 1e-05
-0.0200427 0.00102682 1e-05
-0.0198376 0.00104418 1e-05
-0.0196338 0.00107322 1e-05
-0.0194327 0.00111734 1e-05
-0.0192368 0.00118024 1e-05
-0.0190172 0.00124951 1e-05
-0.0189002 0.00128348 1e-05
-0.0187827 0.00131598 1e-05
-0.0186649 0.001347 1e-05
-0.0185469 0.001377 1e-05
-0.0183807 0.00141936 1e-05
-0.0182041 0.00146458 1e-05
-0.0180267 0.00150692 1e-05
-0.0178487 0.0015464 1e-05
-0.0176703 0.00158389 1e-05
-0.0174976 0.00161991 1e-05
-0.0172846 0.00166394 1e-05
-0.0170715 0.00170741 1e-05
-0.0168583 0.00175029 1e-05
-0.0166449 0.00179219 1e-05
-0.0163945 0.00184007 1e-05
-0.0163234 0.00185324 1e-05
-0.0162522 0.00186629 1e-05
-0.016181 0.00187921 1e-05
-0.0161097 0.00189201 1e-05
-0.0160387 0.0019046 1e-05
-0.0157586 0.0019535 1e-05
-0.0154779 0.00199931 1e-05
-0.0151968 0.00204225 1e-05
-0.0149154 0.00208283 1e-05
-0.0146381 0.00212134 1e-05
-0.0143838 0.00215527 1e-05
-0.0141293 0.00218766 1e-05
-0.0138747 0.00221855 1e-05
-0.0136198 0.00224797 1e-05
-0.0132934 0.00228369 1e-05
-0.0132791 0.00228515 1e-05
-0.0132648 0.0022866 1e-05
-0.0132504 0.00228805 1e-05
-0.0132361 0.0022895 1e-05
-0.0132214 0.00229098 1e-05
-0.0129776 0.00231543 1e-05
-0.0127337 0.00233865 1e-05
-0.0124897 0.00236061 1e-05
-0.0122456 0.0023813 1e-05
-0.0120025 0.00240058 1e-05
-0.0117547 0.00241909 1e-05
-0.0115067 0.00243627 1e-05
-0.0112587 0.00245231 1e-05
-0.0110106 0.00246734 1e-05
-0.0107632 0.00248136 1e-05
-0.0105252 0.00249391 1e-05
-0.0102872 0.00250547 1e-05
-0.0100491 0.00251602 1e-05
-0.00981105 0.00252575 1e-05
-0.00957337 0.00253472 1e-05
-0.00934491 0.00254261 1e-05
-0.00911643 0.00254974 1e-05
-0.00888792 0.00255611 1e-05
-0.0086594 0.00256172 1e-05
-0.00843108 0.00256669 1e-05
-0.00821175 0.00257085 1e-05
-0.00799241 0.00257439 1e-05
-0.00777306 0.00257731 1e-05
-0.0075537 0.00257953 1e-05
-0.00733443 0.00258115 1e-05
-0.00712387 0.00258213 1e-05
-0.0069133 0.00258256 1e-05
-0.00670273 0.00258244 1e-05
-0.00649216 0.00258162 1e-05
-0.0062816 0.00258018 1e-05
-0.00607944 0.0025782 1e-05
-0.0058773 0.00257566 1e-05
-0.00567516 0.00257257 1e-05
-0.00547303 0.00256875 1e-05
-0.00527083 0.0025642 1e-05
-0.00507675 0.00255913 1e-05
-0.00488269 0.00255344 1e-05
-0.00468865 0.00254712 1e-05
-0.00449464 0.00253998 1e-05
-0.00430044 0.00253192 1e-05
-0.00411412 0.0025233 1e-05
-0.00392784 0.00251389 1e-05
-0.00374159 0.0025037 1e-05
-0.0035554 0.00249256 1e-05
-0.00336883 0.00248017 1e-05
-0.00318995 0.00246713 1e-05
-0.00301115 0.00245301 1e-05
-0.00283245 0.00243776 1e-05
-0.00265386 0.00242123 1e-05
-0.00247443 0.00240316 1e-05
-0.0023027 0.00238428 1e-05
-0.00213114 0.00236386 1e-05
-0.00195982 0.00234156 1e-05
-0.00178875 0.0023174 1e-05
-0.00161577 0.00229108 1e-05
-0.00161565 0.00229106 1e-05
-0.00161552 0.00229104 1e-05
-0.0016154 0.00229102 1e-05
-0.00161528 0.002291 1e-05
-0.00161515 0.00229098 1e-05
-0.00145041 0.00226408 1e-05
-0.00128606 0.00223482 1e-05
-0.00112214 0.00220327 1e-05
-0.000958667 0.00216948 1e-05
-0.000791418 0.00213239 1e-05
-0.000633135 0.00209428 1e-05
-0.000475556 0.00205335 1e-05
-0.000318719 0.00200967 1e-05
-0.000162834 0.0019627 1e-05
0 0.00190954 1e-05
3.73559e-05 0.00189634 1e-05
7.46118e-05 0.00188285 1e-05
0.000111769 0.0018691 1e-05
0.000148829 0.00185509 1e-05
0.000179148 0.00184338 1e-05
0.000248996 0.00181594 1e-05
0.000318433 0.00178749 1e-05
0.000387445 0.00175801 1e-05
0.000456018 0.00172753 1e-05
0.000528387 0.00169416 1e-05
0.000634886 0.00164318 1e-05
0.000740278 0.00158995 1e-05
0.00084451 0.00153449 1e-05
0.00094762 0.00147696 1e-05
0.00101994 0.00143469 1e-05
0.00102813 0.00142974 1e-05
0.00103631 0.00142477 1e-05
0.00104448 0.00141979 1e-05
0.00105264 0.0014148 1e-05
0.00106088 0.00140973 1e-05
0.00116821 0.00134355 1e-05
0.00127404 0.00127499 1e-05
0.00137827 0.00120404 1e-05
0.00148099 0.0011309 1e-05
0.00159674 0.00104511 1e-05
0.00159689 0.00104499 1e-05
0.00159705 0.00104487 1e-05
0.00159721 0.00104475 1e-05
0.00159736 0.00104462 1e-05
0.00159752 0.0010445 1e-05
0.00169219 0.000970927 1e-05
0.00178547 0.000895584 1e-05
0.00187726 0.000818442 1e-05
0.00196763 0.000739646 1e-05
0.00203803 0.000676367 1e-05
0.00205809 0.000657883 1e-05
0.00207807 0.00063931 1e-05
0.00209796 0.000620647 1e-05
0.00211779 0.000601921 1e-05
0.00213833 0.000582413 1e-05
0.00219147 0.000531589 1e-05
0.00224411 0.000480248 1e-05
0.00229624 0.000428383 1e-05
0.00234783 0.000375986 1e-05
0.00239413 0.000328255 1e-05
0.00245197 0.000267799 1e-05
0.00250918 0.000206744 1e-05
0.00256576 0.000145106 1e-05
0.00262183 8.30015e-05 1e-05
0.00268334 1.36852e-05 1e-05
0.00268572 1.09482e-05 1e-05
0.0026881 8.21011e-06 1e-05
0.00269048 5.47103e-06 1e-05
0.00269286 2.73093e-06 1e-05
0.00269522 0 1e-05
0.00275912 -7.37368e-05 1e-05
0.0028224 -0.000148005 1e-05
0.00288504 -0.000222813 1e-05
0.00294701 -0.000298173 1e-05
0.00300409 -0.000368654 1e-05
0.00304979 -0.000425928 1e-05
0.00309518 -0.000483448 1e-05
0.00314026 -0.00054121 1e-05
0.00318509 -0.000599167 1e-05
0.00323259 -0.000661136 1e-05
0.00325064 -0.000684928 1e-05
0.00326864 -0.000708759 1e-05
0.00328658 -0.00073263 1e-05
0.00330448 -0.000756542 1e-05
0.00332203 -0.00078009 1e-05
0.00339017 -0.000871877 1e-05
0.00345771 -0.000964107 1e-05
0.00352463 -0.00105679 1e-05
0.003591 -0.00114986 1e-05
0.00365387 -0.00123896 1e-05
0.00368031 -0.00127684 1e-05
0.00370669 -0.00131478 1e-05
0.00373298 -0.00135277 1e-05
0.00375923 -0.0013908 1e-05
0.00378611 -0.00142986 1e-05
0.00383009 -0.00149398 1e-05
0.00387387 -0.00155825 1e-05
0.00391742 -0.00162267 1e-05
0.00396074 -0.00168724 1e-05
0.0040029 -0.00175044 1e-05
0.00407111 -0.00185326 1e-05
0.0041389 -0.00195637 1e-05
0.00420626 -0.00205975 1e-05
0.00427334 -0.00216332 1e-05
0.00434393 -0.00227299 1e-05
0.00434998 -0.00228245 1e-05
0.00435603 -0.00229192 1e-05
0.00436207 -0.00230139 1e-05
0.00436811 -0.00231086 1e-05
0.00437413 -0.0023203 1e-05
0.00445497 -0.00244725 1e-05
0.00453537 -0.00257449 1e-05
0.00461536 -0.00270197 1e-05
0.00469501 -0.00282968 1e-05
0.00477288 -0.00295498 1e-05
0.00479952 -0.002998 1e-05
0.00482614 -0.00304103 1e-05
0.00485273 -0.00308408 1e-05
0.00487931 -0.00312714 1e-05
0.00490609 -0.00317052 1e-05
0.00496672 -0.00326874 1e-05
0.00502721 -0.00336706 1e-05
0.00508754 -0.00346546 1e-05
0.00514774 -0.00356395 1e-05
0.00520739 -0.00366161 1e-05
0.00526044 -0.00374852 1e-05
0.00531344 -0.00383545 1e-05
0.00536641 -0.00392242 1e-05
0.0054194 -0.00400936 1e-05
0.00547262 -0.00409657 1e-05
0.00551559 -0.00416688 1e-05
0.00555853 -0.00423721 1e-05
0.00560143 -0.00430756 1e-05
0.00564432 -0.00437792 1e-05
0.00568714 -0.00444811 1e-05
0.00575842 -0.00456487 1e-05
0.00582975 -0.00468159 1e-05
0.00590113 -0.00479829 1e-05
0.00597264 -0.00491491 1e-05
0.00604356 -0.00503009 1e-05
0.0060798 -0.00508872 1e-05
0.00611606 -0.00514735 1e-05
0.00615232 -0.00520597 1e-05
0.0061886 -0.00526458 1e-05
0.006225 -0.00532326 1e-05
0.00630378 -0.00545005 1e-05
0.00638276 -0.00557672 1e-05
0.00646193 -0.00570326 1e-05
0.00654138 -0.00582964 1e-05
0.00661893 -0.0059522 1e-05
0.00666281 -0.0060211 1e-05
0.00670675 -0.00608996 1e-05
0.00675074 -0.0061588 1e-05
0.00679481 -0.00622758 1e-05
0.00683926 -0.00629671 1e-05
0.00691117 -0.00640815 1e-05
0.00698332 -0.00651943 1e-05
0.00705574 -0.00663054 1e-05
0.00712845 -0.00674146 1e-05
0.00719878 -0.00684796 1e-05
0.00726944 -0.00695417 1e-05
0.00734032 -0.00706024 1e-05
0.00741143 -0.00716616 1e-05
0.00748285 -0.00727187 1e-05
0.00755579 -0.00737909 1e-05
0.00760126 -0.00744544 1e-05
0.00764686 -0.00751171 1e-05
0.00769258 -0.00757788 1e-05
0.00773844 -0.00764397 1e-05
0.00778313 -0.00770805 1e-05
0.00790091 -0.00787603 1e-05
0.00801946 -0.00804347 1e-05
0.00813878 -0.00821036 1e-05
0.0082591 -0.00837653 1e-05
0.00837203 -0.00853045 1e-05
0.00837968 -0.00854074 1e-05
0.00838734 -0.00855102 1e-05
0.00839499 -0.00856131 1e-05
0.00840266 -0.00857159 1e-05
0.00841034 -0.00858189 1e-05
0.00852138 -0.00873062 1e-05
0.00863323 -0.00887873 1e-05
0.00874593 -0.00902619 1e-05
0.0088595 -0.009173 1e-05
0.00896551 -0.00930816 1e-05
0.00903005 -0.00938939 1e-05
0.00909485 -0.00947042 1e-05
0.00915992 -0.00955123 1e-05
0.00922529 -0.00963179 1e-05
0.00929282 -0.00971438 1e-05
0.00934698 -0.00978008 1e-05
0.00940133 -0.00984562 1e-05
0.00945588 -0.009911 1e-05
0.00951062 -0.00997621 1e-05
0.0095636 -0.0100389 1e-05
[...]
POINT_DATA 12278
 FIELD attributes 1
U 3 12278 float
9.72339 	0.381311 	0 9.77871 	0.305049 	0 9.83405 	0.228765 	0 9.8894 	0.152465 	0 9.94476 	0.0761532 	0 10 	0 	0
10.0671 	0.375483 	0 10.0537 	0.300387 	0 10.0403 	0.225271 	0 10.0268 	0.150141 	0 10.0134 	0.0750008 	0 10 	0 	0
10.0364 	0.141572 	0 10.0291 	0.113304 	0 10.0218 	0.085089 	0 10.0145 	0.0569263 	0 10.0071 	0.0288164 	0 10 	0 	0
10.0137 	0.111519 	0 10.011 	0.0892152 	0 10.0082 	0.0669109 	0 10.0055 	0.0446062 	0 10.0027 	0.0223012 	0 10 	0 	0
10.0097 	0.0196536 	0 10.0078 	0.0157228 	0 10.0058 	0.0117921 	0 10.0039 	0.00786141 	0 10.0019 	0.0039307 	0 10 	0 	0
10.0102 	-0.0372874 	0 10.0082 	-0.0298299 	0 10.0061 	-0.0223724 	0 10.0041 	-0.0149149 	0 10.002 	-0.00745738 	0 10 	0 	0
10.0174 	-0.148996 	0 10.0139 	-0.119197 	0 10.0105 	-0.0893967 	0 10.007 	-0.0595953 	0 10.0035 	-0.0297932 	0 10 	0 	0
10.0362 	-0.265901 	0 10.029 	-0.212721 	0 10.0217 	-0.159534 	0 10.0145 	-0.106342 	0 10.0072 	-0.053146 	0 10 	0 	0
10.0563 	-0.387167 	0 10.045 	-0.309734 	0 10.0338 	-0.23228 	0 10.0225 	-0.15481 	0 10.0112 	-0.0773282 	0 10 	0 	0
8.30133 	-0.114495 	0 8.4287 	-0.091596 	0 8.55659 	-0.0686962 	0 8.68498 	-0.0457957 	0 8.81385 	-0.0228949 	0 8.94315 	0 	0
9.72339 	0.381311 	0 9.5415 	0.555241 	0 9.39671 	0.663651 	0 9.26203 	0.754271 	0 9.2183 	0.780385 	0 8.95344 	1.27614 	0 8.70578 	1.91036 	0 8.48173 	2.72184 	0 8.46724 	2.67123 	0 8.47252 	2.45986 	0 8.50117 	2.35314 	0 8.52498 	2.2443 	0 8.51221 	2.16311 	0 8.42487 	2.14738 	0 8.30214 	2.12559 	0 8.30117 	1.9821 	0 8.28715 	1.83798 	0 8.21181 	1.72569 	0 8.035 	1.67507 	0 7.86306 	1.62575 	0 7.68323 	1.56759 	0 7.50177 	1.50875 	0 7.42793 	1.45839 	0 7.36148 	1.40771 	0 7.27865 	1.34671 	0 7.22249 	1.32376 	0 7.16614 	1.3007 	0 7.10958 	1.27753 	0 7.07928 	1.2544 	0 7.05291 	1.23121 	0 6.97394 	1.13838 	0 6.88841 	1.05226 	0 6.79883 	0.980329 	0 6.71191 	0.932083 	0 6.6228 	0.883659 	0 6.55089 	0.833775 	0 6.49228 	0.787588 	0 6.44246 	0.743856 	0 6.3887 	0.699092 	0 6.31694 	0.642267 	0 6.31477 	0.640172 	0 6.3132 	0.638348 	0 6.31172 	0.636561 	0 6.31022 	0.634773 	0 6.30868 	0.632934 	0 6.27131 	0.597064 	0 6.23151 	0.560865 	0 6.18921 	0.524334 	0 6.1444 	0.487465 	0 6.10942 	0.456254 	0 6.07602 	0.420972 	0 6.0457 	0.390997 	0 6.017 	0.364554 	0 5.99442 	0.339603 	0 5.97315 	0.315199 	0 5.95245 	0.289066 	0 5.92972 	0.262723 	0 5.91347 	0.241662 	0 5.90339 	0.222658 	0 5.89181 	0.203591 	0 5.87916 	0.183524 	0 5.86497 	0.163358 	0 5.85626 	0.143794 	0 5.85336 	0.127406 	0 5.84918 	0.11099 	0 5.84296 	0.0943558 	0 5.83549 	0.0776797 	0 5.8334 	0.0589775 	0 5.83629 	0.043104 	0 5.83799 	0.027231 	0 5.83716 	0.0119336 	0 5.83533 	-0.00343306 	0 5.83919 	-0.022534 	0 5.8473 	-0.0400251 	0 5.85423 	-0.057462 	0 5.85859 	-0.0735286 	0 5.86183 	-0.0895693 	0 5.87119 	-0.110957 	0 5.88466 	-0.132494 	0 5.89663 	-0.153961 	0 5.90648 	-0.173327 	0 5.91505 	-0.192623 	0 5.92937 	-0.218082 	0 5.94825 	-0.247037 	0 5.96524 	-0.275852 	0 5.98118 	-0.302084 	0 5.99548 	-0.328166 	0 6.01451 	-0.359781 	0 6.03862 	-0.400944 	0 6.06022 	-0.441863 	0 6.08255 	-0.480326 	0 6.10475 	-0.520946 	0 6.13006 	-0.567602 	0 6.15453 	-0.619675 	0 6.17866 	-0.679484 	0 6.20604 	-0.738475 	0 6.23738 	-0.811864 	0 6.26485 	-0.884718 	0 6.2885 	-0.957034 	0 6.30861 	-1.02974 	0 6.30863 	-1.02981 	0 6.30865 	-1.02989 	0 6.30868 	-1.02998 	0 6.3087 	-1.03006 	0 6.30872 	-1.03014 	0 6.3325 	-1.1273 	0 6.35103 	-1.22236 	0 6.36443 	-1.31535 	0 6.37518 	-1.41402 	0 6.38846 	-1.53819 	0 6.40626 	-1.66393 	0 6.41781 	-1.78758 	0 6.40569 	-1.93008 	2.62004e-20 6.36931 	-2.07904 	5.37102e-20 6.31916 	-2.23381 	8.12124e-20 6.31095 	-2.28429 	2.33347e-20 6.29876 	-2.33164 	5.77901e-21 6.28239 	-2.37568 	3.12205e-20 6.26546 	-2.41946 	5.72829e-20 6.25111 	-2.45516 	7.91699e-20 6.22472 	-2.55099 	1.78919e-19 6.19639 	-2.64626 	2.82827e-19 6.16611 	-2.74095 	3.90867e-19 6.11997 	-2.82207 	2.74259e-19 6.06344 	-2.90239 	6.24727e-20 5.98348 	-3.02205 	4.92551e-20 5.89832 	-3.13874 	3.61743e-20 5.80145 	-3.23658 	8.55727e-21 5.70019 	-3.33249 	-1.80601e-20 5.62521 	-3.3991 	-3.62165e-20 5.61608 	-3.40839 	-3.6009e-20 5.60692 	-3.41766 	-3.57865e-20 5.59769 	-3.42629 	-3.69348e-20 5.58832 	-3.43323 	-4.1731e-20 5.57881 	-3.44024 	-4.65728e-20 5.45893 	-3.53644 	-2.83044e-20 5.33372 	-3.63069 	-9.46322e-21 5.20768 	-3.70765 	1.18986e-22 5.08145 	-3.76653 	-2.01593e-22 4.93237 	-3.83189 	6.75975e-23 4.93214 	-3.83202 	3.86826e-23 4.93191 	-3.83214 	9.76744e-24 4.9317 	-3.83223 	1.71472e-23 4.93149 	-3.8323 	4.30415e-23 4.93129 	-3.83237 	6.89433e-23 4.80556 	-3.88172 	1.12225e-21 4.67574 	-3.92947 	2.48011e-21 4.5488 	-3.96597 	4.20827e-21 4.43115 	-3.98307 	6.33378e-21 4.33582 	-3.99544 	8.2048e-21 4.30551 	-4.0031 	1.33473e-20 4.27498 	-4.01067 	1.85277e-20 4.24969 	-4.01239 	9.21494e-21 4.22454 	-4.01375 	-8.26787e-22 4.19827 	-4.0151 	-1.12379e-20 4.12444 	-4.02241 	-6.36306e-20 4.04943 	-4.0292 	-1.15655e-19 3.97338 	-4.03531 	-1.65859e-19 3.90919 	-4.02978 	-1.01593e-19 3.85036 	-4.0244 	-4.30517e-20 3.77281 	-4.02654 	4.15986e-21 3.69536 	-4.0258 	4.19689e-20 3.62349 	-4.01369 	3.41726e-20 3.55055 	-4.0011 	2.66468e-20 3.46854 	-3.98662 	1.86212e-20 3.46518 	-3.9862 	1.92512e-20 3.46181 	-3.98578 	1.98812e-20 3.45845 	-3.98536 	2.05115e-20 3.45528 	-3.98463 	2.10404e-20 3.45219 	-3.98378 	2.15276e-20 3.38406 	-3.97177 	1.4123e-20 3.31387 	-3.95762 	7.41447e-21 3.24247 	-3.94277 	7.0057e-22 3.17069 	-3.9157 	6.17215e-21 3.10305 	-3.88893 	1.23558e-20 3.06098 	-3.87893 	3.47219e-20 3.0186 	-3.86754 	5.06174e-20 2.97701 	-3.84858 	2.33622e-20 2.93502 	-3.8294 	-3.83609e-21 2.88984 	-3.80872 	-3.27551e-20 2.87169 	-3.80216 	-3.88659e-20 2.85347 	-3.79555 	-4.49788e-20 2.83516 	-3.78888 	-5.1094e-20 2.81695 	-3.77981 	-5.72948e-20 2.799 	-3.77028 	-6.34139e-20 2.74561 	-3.74922 	-1.07142e-19 2.69138 	-3.72767 	-1.5099e-19 2.63658 	-3.69703 	-1.46195e-19 2.58216 	-3.65966 	-8.81854e-20 2.52964 	-3.62355 	-3.2704e-20 2.51272 	-3.61464 	2.04556e-21 2.49576 	-3.60552 	3.51931e-20 2.4799 	-3.59313 	2.99421e-20 2.46397 	-3.5807 	2.47263e-20 2.44756 	-3.5679 	1.94104e-20 2.41701 	-3.54881 	5.65412e-20 2.3862 	-3.52952 	9.35924e-20 2.35514 	-3.51004 	1.30562e-19 2.32514 	-3.48553 	1.0346e-19 2.29572 	-3.46107 	7.22965e-20 2.2588 	-3.43539 	4.24515e-20 2.22142 	-3.40939 	1.25741e-20 2.18686 	-3.37654 	-2.88946e-21 2.15206 	-3.34335 	-1.80921e-20 2.11494 	-3.30803 	-3.4194e-20 2.11122 	-3.30516 	-3.17648e-20 2.1075 	-3.3023 	-2.93383e-20 2.10377 	-3.29942 	-2.69147e-20 2.10027 	-3.29599 	-3.39824e-20 2.09677 	-3.29254 	-4.13478e-20 2.06005 	-3.26026 	-1.64676e-19 2.02432 	-3.22593 	-2.56668e-19 1.98927 	-3.18983 	-2.99669e-19 1.95704 	-3.14894 	-1.93327e-19 1.92527 	-3.10872 	-8.89889e-20 1.91667 	-3.09904 	-7.79018e-20 1.90805 	-3.08934 	-6.68103e-20 1.90072 	-3.07851 	-5.65427e-20 1.89368 	-3.06741 	-4.64655e-20 1.88659 	-3.05622 	-3.63127e-20 1.86466 	-3.03084 	-1.17682e-20 1.84261 	-3.00535 	1.27978e-20 1.82102 	-2.97919 	2.99799e-20 1.80198 	-2.95021 	1.21419e-20 1.78309 	-2.92147 	-5.5324e-21 1.7697 	-2.90251 	-2.11489e-20 1.75628 	-2.88352 	-3.67536e-20 1.74504 	-2.86324 	-1.81192e-20 1.73473 	-2.84244 	1.47102e-20 1.72443 	-2.8216 	4.76463e-20 1.7121 	-2.80441 	1.21407e-20 1.69975 	-2.78719 	-2.33147e-20 1.68804 	-2.7695 	-3.49382e-20 1.67796 	-2.75065 	1.29503e-20 1.66791 	-2.73185 	6.07074e-20 1.65458 	-2.70765 	1.97484e-19 1.64128 	-2.68348 	3.34199e-19 1.63036 	-2.65853 	2.9637e-19 1.6212 	-2.6331 	1.33618e-19 1.61228 	-2.60806 	-2.78261e-20 1.60448 	-2.5947 	-5.73749e-20 1.59668 	-2.58135 	-8.69317e-20 1.58969 	-2.56765 	-8.97815e-20 1.58381 	-2.55349 	-5.62833e-20 1.57795 	-2.53934 	-2.27586e-20 1.56796 	-2.51482 	-2.46195e-20 1.55807 	-2.49039 	-2.65203e-20 1.55013 	-2.46585 	-1.93218e-20 1.54469 	-2.44115 	-4.87726e-22 1.53962 	-2.41734 	1.77655e-20 1.53298 	-2.40286 	2.97361e-20 1.52636 	-2.3884 	4.17021e-20 1.52105 	-2.37372 	4.57344e-20 1.5167 	-2.35889 	4.41121e-20 1.51238 	-2.34403 	4.24598e-20 1.50714 	-2.32429 	2.55765e-20 1.50203 	-2.30466 	8.66757e-21 1.49799 	-2.28524 	-3.12863e-21 1.49664 	-2.26619 	-1.11601e-21 1.49554 	-2.24802 	8.17424e-22 1.48858 	-2.22751 	7.6226e-20 1.48171 	-2.2071 	1.51862e-19 1.47745 	-2.18685 	1.25749e-19 1.47412 	-2.16676 	6.77874e-20 1.47089 	-2.14648 	8.99972e-21 1.46969 	-2.13593 	-2.33915e-20 1.46854 	-2.12543 	-5.57392e-20 1.46766 	-2.1151 	-8.20783e-20 1.46919 	-2.1062 	-3.65219e-20 1.47075 	-2.09763 	7.88491e-21 1.46362 	-2.06741 	4.60773e-21 1.45679 	-2.03748 	1.31278e-21 1.45603 	-2.01091 	-2.34816e-20 1.45659 	-1.9852 	-5.17601e-20 1.45919 	-1.96223 	-7.49168e-20 1.45872 	-1.96028 	-6.8623e-20 1.45825 	-1.95833 	-6.23819e-20 1.4582 	-1.95659 	-6.70937e-20 1.45816 	-1.95485 	-7.18032e-20 1.45811 	-1.95311 	-7.65229e-20 1.45623 	-1.92817 	-2.09639e-19 1.45473 	-1.90353 	-3.42021e-19 1.45395 	-1.87947 	-4.46795e-19 1.4582 	-1.85923 	-1.91269e-19 1.46257 	-1.84086 	4.71221e-20 1.46043 	-1.82597 	1.11136e-19 1.4584 	-1.81118 	1.74945e-19 1.45931 	-1.79851 	1.42273e-19 1.46036 	-1.78594 	1.09703e-19 1.46156 	-1.77313 	7.63144e-20 1.46249 	-1.76355 	6.73743e-20 1.4635 	-1.75403 	5.84561e-20 1.46459 	-1.74459 	4.95603e-20 1.4672 	-1.73639 	5.16373e-20 1.46987 	-1.72862 	5.41564e-20 1.46936 	-1.70535 	2.94648e-20 1.4692 	-1.68237 	4.71122e-21 1.47212 	-1.66181 	2.02722e-20 1.47671 	-1.64234 	4.53597e-20 1.48265 	-1.62523 	6.85914e-20 1.48264 	-1.62118 	6.74783e-20 1.48272 	-1.6172 	6.76411e-20 1.48331 	-1.6136 	7.51638e-20 1.48391 	-1.61001 	8.26845e-20 1.48453 	-1.60638 	9.02926e-20 1.48724 	-1.59062 	1.39726e-19 1.49021 	-1.57506 	1.89037e-19 1.49346 	-1.5597 	2.38222e-19 1.49864 	-1.54619 	1.68543e-19 1.50406 	-1.534 	8.21745e-20 1.50572 	-1.51452 	1.55461e-19 1.50822 	-1.49578 	2.0352e-19 1.51283 	-1.47897 	1.61706e-19 1.5178 	-1.46243 	1.20423e-19 1.5235 	-1.44495 	7.66797e-20 1.52353 	-1.44487 	7.63787e-20 1.52356 	-1.44478 	7.60776e-20 1.52358 	-1.4447 	7.57766e-20 1.52362 	-1.44463 	7.61768e-20 1.52366 	-1.44456 	7.68841e-20 1.52805 	-1.42753 	1.26816e-19 1.53286 	-1.41078 	1.74861e-19 1.53804 	-1.39429 	2.22516e-19 1.54481 	-1.37957 	1.84294e-19 1.55192 	-1.36665 	1.17165e-19 1.55525 	-1.34904 	2.03194e-19 1.55947 	-1.33233 	2.39334e-19 1.56511 	-1.31719 	1.74588e-19 1.5711 	-1.30228 	1.10057e-19 1.57744 	-1.28874 	3.78535e-20 1.57767 	-1.28776 	3.76062e-20 1.57793 	-1.28683 	3.67906e-20 1.57825 	-1.28596 	3.52583e-20 1.57857 	-1.2851 	3.37257e-20 1.57888 	-1.28422 	3.21843e-20 1.58411 	-1.27026 	-1.33828e-20 1.58963 	-1.25649 	-5.88706e-20 1.59546 	-1.24292 	-1.04276e-19 1.60217 	-1.23056 	-8.93544e-20 1.60924 	-1.21982 	-2.99858e-20 1.61369 	-1.2043 	-7.5372e-20 1.61846 	-1.18898 	-1.21172e-19 1.62454 	-1.17561 	-1.03602e-19 1.63183 	-1.16295 	-6.09358e-20 1.63986 	-1.15157 	3.29958e-22 1.64214 	-1.14476 	2.87141e-20 1.64475 	-1.13845 	2.82033e-20 1.6476 	-1.13251 	7.10215e-21 1.65052 	-1.1266 	-1.39485e-20 1.65364 	-1.12045 	-3.59944e-20 1.65729 	-1.1136 	-6.8005e-20 1.66103 	-1.10681 	-9.99033e-20 1.66486 	-1.10007 	-1.31689e-19 1.66892 	-1.09376 	-1.3124e-19 1.67317 	-1.08827 	-7.98829e-20 1.67832 	-1.07453 	-1.1192e-19 1.68434 	-1.06127 	-1.36214e-19 1.69168 	-1.04886 	-1.45604e-19 1.69986 	-1.03825 	-1.35274e-19 1.70795 	-1.02829 	-1.25285e-19 1.71373 	-1.01478 	-2.75589e-19 1.72 	-1.00208 	-3.49947e-19 1.72689 	-0.990644 	-2.95876e-19 1.73404 	-0.979364 	-2.42314e-19 1.74233 	-0.969284 	-1.16095e-19 1.74442 	-0.964966 	-8.27221e-20 1.74666 	-0.961097 	-8.49297e-20 1.74896 	-0.957362 	-9.67414e-20 1.75129 	-0.953643 	-1.08505e-19 1.75375 	-0.949783 	-1.20724e-19 1.75862 	-0.942407 	-1.24342e-19 1.76362 	-0.935098 	-1.27934e-19 1.76873 	-0.927856 	-1.31497e-19 1.77399 	-0.920905 	-1.29681e-19 1.77934 	-0.915124 	-1.0523e-19 1.78539 	-0.903192 	-1.32841e-19 1.79244 	-0.891832 	-1.4485e-19 1.80038 	-0.880979 	-1.43622e-19 1.8087 	-0.871915 	-1.0295e-19 1.81699 	-0.863384 	-6.09243e-20 1.8236 	-0.851692 	-1.64886e-19 1.83048 	-0.84017 	-2.66676e-19 1.83764 	-0.830477 	-2.25363e-19 1.84586 	-0.821369 	-1.27946e-19 1.85454 	-0.812923 	4.45133e-23 1.86114 	-0.802388 	1.42603e-22 1.86791 	-0.793482 	1.08057e-22 1.87486 	-0.784718 	6.95067e-23 1.88201 	-0.776055 	3.05297e-23 1.89037 	-0.766306 	-1.43253e-23 1.89077 	-0.765872 	7.415e-22 1.89116 	-0.765438 	1.49681e-21 1.89156 	-0.765004 	2.2516e-21 1.89195 	-0.764571 	3.00588e-21 1.89234 	-0.764223 	4.41835e-22 1.89982 	-0.754766 	-2.54135e-20 1.90761 	-0.745482 	-4.72818e-20 1.91563 	-0.73631 	-6.89718e-20 1.92386 	-0.727263 	-8.98679e-20 1.93177 	-0.720275 	-3.11829e-20 1.93866 	-0.710319 	-2.11124e-20 1.94622 	-0.700801 	-1.38947e-20 1.95461 	-0.691817 	-1.03818e-20 1.96278 	-0.684548 	-1.59691e-20 1.97092 	-0.67768 	-2.24345e-20 1.97824 	-0.667974 	5.39579e-20 1.98577 	-0.658369 	1.30463e-19 1.9932 	-0.650282 	1.32361e-19 2.00151 	-0.643336 	6.57231e-20 2.00985 	-0.636593 	1.62933e-22 2.01757 	-0.627141 	9.67816e-23 2.0251 	-0.618767 	-1.12122e-20 2.03252 	-0.611226 	-3.10578e-20 2.04012 	-0.603764 	-5.08796e-20 2.04859 	-0.597124 	-6.39254e-20 2.05548 	-0.589436 	-1.06398e-19 2.062 	-0.582941 	-1.09946e-19 2.06865 	-0.576502 	-1.13554e-19 2.07543 	-0.570121 	-1.1722e-19 2.08338 	-0.562858 	-1.21497e-19 2.08416 	-0.562178 	-1.22708e-19 2.08494 	-0.561498 	-1.23919e-19 2.08572 	-0.560818 	-1.25129e-19 2.08651 	-0.56014 	-1.26338e-19 2.08722 	-0.559589 	-1.22237e-19 2.09468 	-0.552287 	-9.42893e-20 2.10238 	-0.545129 	-6.50461e-20 2.11025 	-0.538041 	-3.58408e-20 2.11829 	-0.531021 	-6.67355e-21 2.12556 	-0.525533 	1.79186e-22 2.13271 	-0.517768 	6.74869e-20 2.14054 	-0.510785 	8.64848e-20 2.14855 	-0.503893 	1.03622e-19 2.1562 	-0.497819 	8.43103e-20 2.16322 	-0.4929 	1.48823e-20 2.1706 	-0.485378 	-5.5058e-20 2.17821 	-0.478003 	-1.18841e-19 2.18628 	-0.471364 	-1.35002e-19 2.1932 	-0.466499 	-6.72704e-20 2.20018 	-0.461719 	-7.23902e-23 2.20776 	-0.454439 	-3.94934e-23 2.21552 	-0.447218 	-6.76879e-24 2.22264 	-0.441355 	0 2.22948 	-0.436638 	0 2.23639 	-0.431995 	0 2.24414 	-0.424956 	0 2.25181 	-0.41824 	0 2.25831 	-0.413005 	0 2.26501 	-0.408229 	-1.01306e-20 2.27182 	-0.403724 	-2.51529e-20 2.2797 	-0.396925 	-6.21736e-21 2.28662 	-0.39129 	-6.36118e-21 2.29311 	-0.38624 	-1.5827e-20 2.29973 	-0.381253 	-2.67158e-20 2.30641 	-0.376886 	-6.6458e-20 2.31411 	-0.370574 	-2.84927e-20 2.32046 	-0.365673 	-3.02818e-20 2.32693 	-0.360806 	-3.20428e-20 2.33352 	-0.355971 	-3.37758e-20 2.34011 	-0.351453 	-4.64626e-20 2.34634 	-0.346601 	-3.69263e-20 2.35194 	-0.342394 	-3.8374e-20 2.35763 	-0.338211 	-3.98003e-20 2.36342 	-0.334053 	-4.12053e-20 2.37025 	-0.329243 	-4.28151e-20 2.37078 	-0.328879 	-4.2694e-20 2.37132 	-0.328515 	-4.2573e-20 2.37186 	-0.328151 	-4.24522e-20 2.37239 	-0.327787 	-4.23315e-20 2.37286 	-0.327479 	-4.25133e-20 2.37903 	-0.322889 	-4.92545e-20 2.38529 	-0.318353 	-5.38029e-20 2.39166 	-0.313845 	-5.82744e-20 2.39814 	-0.309365 	-6.26694e-20 2.40378 	-0.305639 	-3.896e-20 2.41011 	-0.300923 	-7.51968e-20 2.41627 	-0.296563 	-8.73295e-20 2.42254 	-0.292228 	-9.94033e-20 2.42891 	-0.287919 	-1.11419e-19 2.43355 	-0.284933 	-7.1294e-20 2.44013 	-0.280149 	-1.18609e-19 2.44617 	-0.275962 	-1.21136e-19 2.45231 	-0.271799 	-1.23615e-19 2.4582 	-0.267895 	-1.18996e-19 2.46217 	-0.265331 	-7.53407e-20 2.46878 	-0.260715 	-1.1787e-19 2.47495 	-0.256509 	-1.28042e-19 2.48095 	-0.252514 	-1.22436e-19 2.48588 	-0.249254 	-9.4801e-20 2.48962 	-0.246795 	-4.31994e-20 2.4962 	-0.242382 	4.31579e-20 2.5026 	-0.238162 	1.03907e-19 2.50844 	-0.234333 	1.09402e-19 2.51241 	-0.231645 	5.03738e-20 2.5159 	-0.22929 	-2.66921e-20 2.52244 	-0.225076 	-1.75887e-20 2.52909 	-0.220881 	-8.49529e-21 2.5346 	-0.217298 	8.66912e-21 2.53778 	-0.215031 	2.59574e-20 2.54101 	-0.212776 	4.32206e-20 2.54749 	-0.208758 	-4.33235e-20 2.55407 	-0.204757 	-1.2988e-19 2.55906 	-0.201536 	-1.41237e-19 2.56198 	-0.199369 	-7.10753e-20 2.56495 	-0.197214 	-1.01259e-21 2.57135 	-0.193386 	-9.91763e-23 2.57786 	-0.189574 	7.93445e-22 2.58237 	-0.186689 	-1.5663e-20 2.58502 	-0.184621 	-4.94096e-20 2.58773 	-0.182562 	-8.31313e-20 2.59404 	-0.178922 	-4.76759e-20 2.60045 	-0.175296 	-1.22362e-20 2.60452 	-0.17272 	-8.54661e-21 2.60691 	-0.170748 	-2.59301e-20 2.60935 	-0.168784 	-4.3298e-20 2.61557 	-0.165326 	-2.59875e-20 2.62187 	-0.161883 	-8.71624e-21 2.62548 	-0.159606 	-9.46052e-21 2.62767 	-0.157709 	-2.60535e-20 2.62984 	-0.155838 	-4.33788e-20 2.63595 	-0.152558 	-1.64886e-19 2.64159 	-0.149504 	-2.61752e-19 2.64504 	-0.147346 	-2.57062e-19 2.6473 	-0.145467 	-1.64747e-19 2.6492 	-0.143686 	-4.33593e-20 2.6552 	-0.14058 	-2.59814e-20 2.6602 	-0.137873 	-8.62106e-21 2.66348 	-0.13583 	8.70883e-21 2.66583 	-0.133983 	2.13101e-20 2.66747 	-0.132291 	3.02521e-20 2.67334 	-0.129353 	9.132e-20 2.67773 	-0.126956 	1.18678e-19 2.68084 	-0.125024 	1.17005e-19 2.68328 	-0.123222 	9.21117e-20 2.68466 	-0.121615 	3.16758e-20 2.6904 	-0.118841 	2.32338e-20 2.6942 	-0.116719 	1.48081e-20 2.69715 	-0.114895 	6.38739e-21 2.69968 	-0.113146 	0 2.7008 	-0.111624 	0 2.70641 	-0.109008 	0 2.70966 	-0.10713 	1.47226e-20 2.71244 	-0.105411 	3.25528e-20 2.71506 	-0.103724 	5.03678e-20 2.71593 	-0.102283 	6.81095e-20 2.7214 	-0.0998203 	1.90105e-19 2.72412 	-0.0981582 	1.93601e-19 2.72673 	-0.0965402 	1.91074e-19 2.7294 	-0.0949254 	1.88598e-19 2.73007 	-0.0935583 	7.02159e-20 2.73521 	-0.0912959 	5.32018e-20 2.73762 	-0.0897725 	3.62409e-20 2.74007 	-0.088252 	1.92719e-20 2.74257 	-0.0867342 	2.29466e-21 2.74325 	-0.0854185 	1.46968e-20 2.74794 	-0.0833729 	-4.34556e-24 2.7502 	-0.0819438 	-2.98912e-23 2.75249 	-0.0805171 	-5.54267e-23 2.75483 	-0.0790928 	-8.0952e-23 2.75551 	-0.0778328 	6.38845e-21 2.75978 	-0.0759821 	-5.08013e-20 2.76188 	-0.0746437 	-4.95024e-20 2.76403 	-0.0733073 	-4.82309e-20 2.76621 	-0.071973 	-4.69868e-20 2.76689 	-0.0707717 	-5.64317e-21 2.77076 	-0.0690964 	8.55975e-23 2.77272 	-0.067845 	6.04915e-23 2.77471 	-0.0665954 	3.53757e-23 2.77674 	-0.0653476 	1.02502e-23 2.77742 	-0.064207 	0 2.78093 	-0.0626897 	1.11921e-20 2.78274 	-0.0615218 	3.75151e-20 2.78459 	-0.0603554 	6.38294e-20 2.78647 	-0.0591905 	9.0135e-20 2.78714 	-0.0581118 	1.07498e-19 2.79031 	-0.0567367 	1.73091e-19 2.79198 	-0.0556487 	1.72013e-19 2.79369 	-0.054562 	1.70963e-19 2.79543 	-0.0534765 	1.6994e-19 2.79609 	-0.0524602 	1.02489e-19 2.79894 	-0.0512134 	8.75811e-20 2.80049 	-0.0502017 	5.31479e-20 2.80206 	-0.0491911 	1.87094e-20 2.80366 	-0.0481817 	-1.57347e-20 2.8043 	-0.0472275 	-4.6689e-20 2.80687 	-0.0460964 	-9.0202e-20 2.80829 	-0.0451576 	-8.89942e-20 2.80973 	-0.0442197 	-8.78202e-20 2.8112 	-0.0432828 	-8.66799e-20 2.81181 	-0.0423901 	-3.70507e-20 2.81413 	-0.0413634 	-4.95308e-20 2.81542 	-0.0404941 	-3.17103e-20 2.81675 	-0.0396255 	-1.39077e-20 2.81809 	-0.0387576 	3.87698e-21 2.81867 	-0.0379252 	4.31034e-20 2.82075 	-0.0369932 	4.98638e-20 2.82193 	-0.0361898 	6.73346e-20 2.82314 	-0.0353871 	8.47971e-20 2.82437 	-0.034585 	1.02251e-19 2.8249 	-0.0338114 	1.22066e-19 2.82677 	-0.0329651 	1.4622e-19 2.82785 	-0.0322244 	1.36998e-19 2.82894 	-0.0314842 	1.27797e-19 2.83006 	-0.0307445 	1.18616e-19 2.83055 	-0.0300278 	8.16886e-20 2.83223 	-0.0292594 	5.80646e-20 2.8332 	-0.028578 	3.23168e-20 2.83419 	-0.0278971 	6.56712e-21 2.83521 	-0.0272167 	-1.91844e-20 2.83564 	-0.0265548 	-4.10464e-20 2.83716 	-0.0258572 	-5.61545e-20 2.83804 	-0.025232 	-3.83806e-20 2.83893 	-0.0246072 	-2.06329e-20 2.83984 	-0.0239827 	-2.91115e-21 2.84022 	-0.0233735 	4.84804e-20 2.8416 	-0.0227404 	1.023e-19 2.84239 	-0.0221682 	1.0998e-19 2.84319 	-0.0215963 	1.17704e-19 2.84401 	-0.0210247 	1.25471e-19 2.84432 	-0.0204657 	8.86191e-20 2.84558 	-0.0198917 	7.17999e-20 2.84628 	-0.0193694 	6.32563e-20 2.84699 	-0.0188474 	5.47087e-20 2.84772 	-0.0183255 	4.61569e-20 2.84798 	-0.0178144 	3.76078e-20 2.84912 	-0.0172943 	1.44212e-20 2.84974 	-0.0168189 	1.47691e-20 2.85038 	-0.0163438 	1.50943e-20 2.85103 	-0.0158688 	1.5397e-20 2.85121 	-0.0154028 	4.14746e-20 2.85227 	-0.