# vtk DataFile Version 2.0
track0
ASCII
DATASET POLYDATA
POINTS 12278 float
-0.0205 0.001 1e-05
-0.02052 0.000999216 1e-05
-0.02054 0.000998592 1e-05
-0.02056 0.000998126 1e-05
-0.02058 0.000997818 1e-05
-0.0206 0.000997665 1e-05
-0.0205 0.00367778 1e-05
-0.02052 0.00367703 1e-05
-0.02054 0.00367643 1e-05
-0.02056 0.00367599 1e-05
-0.02058 0.00367569 1e-05
-0.0206 0.00367554 1e-05
-0.0205 0.00635556 1e-05
-0.02052 0.00635527 1e-05
-0.02054 0.00635505 1e-05
-0.02056 0.00635488 1e-05
-0.02058 0.00635476 1e-05
-0.0206 0.00635471 1e-05
-0.0205 0.00903333 1e-05
-0.02052 0.00903311 1e-05
-0.02054 0.00903293 1e-05
-0.02056 0.0090328 1e-05
-0.02058 0.00903271 1e-05
-0.0206 0.00903266 1e-05
-0.0205 0.0117111 1e-05
-0.02052 0.0117111 1e-05
-0.02054 0.011711 1e-05
-0.02056 0.011711 1e-05
-0.02058 0.011711 1e-05
-0.0206 0.011711 1e-05
-0.0205 0.0143889 1e-05
-0.02052 0.014389 1e-05
-0.02054 0.014389 1e-05
-0.02056 0.0143891 1e-05
-0.02058 0.0143891 1e-05
-0.0206 0.0143891 1e-05
-0.0205 0.0170667 1e-05
-0.02052 0.017067 1e-05
-0.02054 0.0170672 1e-05
-0.02056 0.0170674 1e-05
-0.02058 0.0170675 1e-05
-0.0206 0.0170676 1e-05
-0.0205 0.0197444 1e-05
-0.02052 0.019745 1e-05
-0.02054 0.0197454 1e-05
-0.02056 0.0197457 1e-05
-0.02058 0.0197459 1e-05
-0.0206 0.019746 1e-05
-0.0205 0.0224222 1e-05
-0.02052 0.022423 1e-05
-0.02054 0.0224236 1e-05
-0.02056 0.0224241 1e-05
-0.02058 0.0224244 1e-05
-0.0206 0.0224245 1e-05
-0.0205 0.0251 1e-05
-0.02052 0.0251003 1e-05
-0.02054 0.0251005 1e-05
-0.02056 0.0251007 1e-05
-0.02058 0.0251008 1e-05
-0.0206 0.0251008 1e-05
-0.0205 0.001 1e-05
-0.0203632 0.00100536 1e-05
-0.0202266 0.00101331 1e-05
-0.0200901 0.00102296 1e-05
-0.0200427 0.00102682 1e-05
-0.0198376 0.00104418 1e-05
-0.0196338 0.00107322 1e-05
-0.0194327 0.00111734 1e-05
-0.0192368 0.00118024 1e-05
-0.0190172 0.00124951 1e-05
-0.0189002 0.00128348 1e-05
-0.0187827 0.00131598 1e-05
-0.0186649 0.001347 1e-05
-0.0185469 0.001377 1e-05
-0.0183807 0.00141936 1e-05
-0.0182041 0.00146458 1e-05
-0.0180267 0.00150692 1e-05
-0.0178487 0.0015464 1e-05
-0.0176703 0.00158389 1e-05
-0.0174976 0.00161991 1e-05
-0.0172846 0.00166394 1e-05
-0.0170715 0.00170741 1e-05
-0.0168583 0.00175029 1e-05
-0.0166449 0.00179219 1e-05
-0.0163945 0.00184007 1e-05
-0.0163234 0.00185324 1e-05
-0.0162522 0.00186629 1e-05
-0.016181 0.00187921 1e-05
-0.0161097 0.00189201 1e-05
-0.0160387 0.0019046 1e-05
-0.0157586 0.0019535 1e-05
-0.0154779 0.00199931 1e-05
-0.0151968 0.00204225 1e-05
-0.0149154 0.00208283 1e-05
-0.0146381 0.00212134 1e-05
-0.0143838 0.00215527 1e-05
-0.0141293 0.00218766 1e-05
-0.0138747 0.00221855 1e-05
-0.0136198 0.00224797 1e-05
-0.0132934 0.00228369 1e-05
-0.0132791 0.00228515 1e-05
-0.0132648 0.0022866 1e-05
-0.0132504 0.00228805 1e-05
-0.0132361 0.0022895 1e-05
-0.0132214 0.00229098 1e-05
-0.0129776 0.00231543 1e-05
-0.0127337 0.00233865 1e-05
-0.0124897 0.00236061 1e-05
-0.0122456 0.00238129 1e-05
-0.0120025 0.00240058 1e-05
-0.0117547 0.00241909 1e-05
-0.0115067 0.00243627 1e-05
-0.0112587 0.00245231 1e-05
-0.0110106 0.00246734 1e-05
-0.0107632 0.00248136 1e-05
-0.0105252 0.00249391 1e-05
-0.0102872 0.00250547 1e-05
-0.0100491 0.00251602 1e-05
-0.00981105 0.00252575 1e-05
-0.00957337 0.00253471 1e-05
-0.00934491 0.00254261 1e-05
-0.00911643 0.00254974 1e-05
-0.00888792 0.0025561 1e-05
-0.0086594 0.00256171 1e-05
-0.00843108 0.00256668 1e-05
-0.00821175 0.00257084 1e-05
-0.00799241 0.00257439 1e-05
-0.00777306 0.00257731 1e-05
-0.0075537 0.00257952 1e-05
-0.00733443 0.00258114 1e-05
-0.00712387 0.00258212 1e-05
-0.0069133 0.00258255 1e-05
-0.00670273 0.00258243 1e-05
-0.00649216 0.00258162 1e-05
-0.0062816 0.00258017 1e-05
-0.00607944 0.00257819 1e-05
-0.0058773 0.00257565 1e-05
-0.00567516 0.00257256 1e-05
-0.00547303 0.00256874 1e-05
-0.00527083 0.00256419 1e-05
-0.00507675 0.00255912 1e-05
-0.00488269 0.00255342 1e-05
-0.00468865 0.0025471 1e-05
-0.00449464 0.00253997 1e-05
-0.00430044 0.0025319 1e-05
-0.00411412 0.00252329 1e-05
-0.00392784 0.00251388 1e-05
-0.00374159 0.00250368 1e-05
-0.0035554 0.00249254 1e-05
-0.00336883 0.00248015 1e-05
-0.00318995 0.00246711 1e-05
-0.00301115 0.00245299 1e-05
-0.00283245 0.00243774 1e-05
-0.00265386 0.0024212 1e-05
-0.00247443 0.00240313 1e-05
-0.0023027 0.00238425 1e-05
-0.00213114 0.00236383 1e-05
-0.00195982 0.00234153 1e-05
-0.00178875 0.00231737 1e-05
-0.00161577 0.00229104 1e-05
-0.00161569 0.00229103 1e-05
-0.00161561 0.00229102 1e-05
-0.00161552 0.002291 1e-05
-0.00161544 0.00229099 1e-05
-0.00161536 0.00229098 1e-05
-0.00145057 0.00226407 1e-05
-0.00128618 0.00223481 1e-05
-0.00112222 0.00220325 1e-05
-0.000958709 0.00216946 1e-05
-0.000791418 0.00213235 1e-05
-0.000633135 0.00209424 1e-05
-0.000475556 0.00205331 1e-05
-0.000318719 0.00200962 1e-05
-0.000162835 0.00196265 1e-05
0 0.0019095 1e-05
3.73296e-05 0.0018963 1e-05
7.45593e-05 0.00188283 1e-05
0.00011169 0.00186908 1e-05
0.000148724 0.00185508 1e-05
0.000179027 0.00184337 1e-05
0.000248899 0.00181593 1e-05
0.00031836 0.00178747 1e-05
0.000387396 0.00175798 1e-05
0.000455992 0.00172749 1e-05
0.000528387 0.00169411 1e-05
0.000634886 0.00164313 1e-05
0.000740278 0.0015899 1e-05
0.00084451 0.00153443 1e-05
0.00094762 0.0014769 1e-05
0.00101983 0.00143468 1e-05
0.00102804 0.00142972 1e-05
0.00103624 0.00142474 1e-05
0.00104443 0.00141975 1e-05
0.00105261 0.00141474 1e-05
0.00106088 0.00140966 1e-05
0.00116821 0.00134348 1e-05
0.00127404 0.00127491 1e-05
0.00137827 0.00120396 1e-05
0.00148099 0.00113082 1e-05
0.00159662 0.00104511 1e-05
0.0015968 0.00104497 1e-05
0.00159698 0.00104483 1e-05
0.00159716 0.00104469 1e-05
0.00159734 0.00104455 1e-05
0.00159752 0.00104441 1e-05
0.00169216 0.000970855 1e-05
0.00178541 0.000895531 1e-05
0.00187718 0.000818409 1e-05
0.00196753 0.000739633 1e-05
0.00203791 0.000676366 1e-05
0.00205799 0.00065786 1e-05
0.00207799 0.000639265 1e-05
0.00209791 0.000620579 1e-05
0.00211777 0.000601831 1e-05
0.00213833 0.000582298 1e-05
0.00219144 0.000531497 1e-05
0.00224406 0.000480179 1e-05
0.00229616 0.000428338 1e-05
0.00234773 0.000375966 1e-05
0.00239401 0.000328254 1e-05
0.00245187 0.000267773 1e-05
0.00250911 0.000206691 1e-05
0.00256571 0.000145025 1e-05
0.0026218 8.28928e-05 1e-05
0.00268334 1.35424e-05 1e-05
0.00268569 1.0834e-05 1e-05
0.00268805 8.12447e-06 1e-05
0.0026904 5.41398e-06 1e-05
0.00269276 2.7025e-06 1e-05
0.0026951 0 1e-05
0.002759 -7.37367e-05 1e-05
0.00282227 -0.000148005 1e-05
0.00288491 -0.000222813 1e-05
0.00294689 -0.000298172 1e-05
0.00300396 -0.000368654 1e-05
0.00304969 -0.00042596 1e-05
0.0030951 -0.000483512 1e-05
0.00314021 -0.000541306 1e-05
0.00318506 -0.000599295 1e-05
0.00323259 -0.000661301 1e-05
0.00325061 -0.00068506 1e-05
0.00326859 -0.000708858 1e-05
0.00328651 -0.000732696 1e-05
0.00330438 -0.000756574 1e-05
0.0033219 -0.000780089 1e-05
0.00339004 -0.000871876 1e-05
0.00345758 -0.000964106 1e-05
0.0035245 -0.00105679 1e-05
0.00359088 -0.00114986 1e-05
0.00365374 -0.00123896 1e-05
0.00368021 -0.00127688 1e-05
0.00370661 -0.00131485 1e-05
0.00373293 -0.00135288 1e-05
0.0037592 -0.00139094 1e-05
0.00378611 -0.00143004 1e-05
0.00383007 -0.00149412 1e-05
0.00387382 -0.00155835 1e-05
0.00391734 -0.00162274 1e-05
0.00396065 -0.00168727 1e-05
0.00400278 -0.00175043 1e-05
0.00407101 -0.0018533 1e-05
0.00413883 -0.00195643 1e-05
0.00420621 -0.00205985 1e-05
0.00427331 -0.00216345 1e-05
0.00434393 -0.00227316 1e-05
0.00434996 -0.00228259 1e-05
0.00435598 -0.00229202 1e-05
0.004362 -0.00230145 1e-05
0.00436802 -0.00231089 1e-05
0.00437402 -0.0023203 1e-05
0.00445486 -0.00244725 1e-05
0.00453526 -0.00257448 1e-05
0.00461526 -0.00270197 1e-05
0.00469491 -0.00282968 1e-05
0.00477279 -0.00295497 1e-05
0.00479945 -0.00299802 1e-05
0.00482608 -0.00304108 1e-05
0.00485269 -0.00308416 1e-05
0.00487929 -0.00312725 1e-05
0.00490609 -0.00317065 1e-05
0.00496671 -0.00326885 1e-05
0.00502718 -0.00336714 1e-05
0.0050875 -0.00346551 1e-05
0.00514769 -0.00356398 1e-05
0.00520733 -0.00366161 1e-05
0.00526039 -0.00374853 1e-05
0.00531341 -0.00383548 1e-05
0.00536638 -0.00392246 1e-05
0.00541939 -0.00400942 1e-05
0.00547262 -0.00409664 1e-05
0.00551559 -0.00416694 1e-05
0.00555852 -0.00423725 1e-05
0.00560142 -0.00430759 1e-05
0.0056443 -0.00437793 1e-05
0.00568711 -0.00444811 1e-05
0.0057584 -0.00456487 1e-05
0.00582973 -0.00468159 1e-05
0.00590112 -0.00479829 1e-05
0.00597264 -0.0049149 1e-05
0.00604356 -0.00503007 1e-05
0.00607981 -0.00508871 1e-05
0.00611607 -0.00514734 1e-05
0.00615233 -0.00520597 1e-05
0.00618863 -0.00526458 1e-05
0.00622503 -0.00532326 1e-05
0.00630381 -0.00545002 1e-05
0.00638278 -0.00557667 1e-05
0.00646195 -0.00570319 1e-05
0.00654139 -0.00582955 1e-05
0.00661893 -0.00595208 1e-05
0.00666283 -0.00602101 1e-05
0.00670679 -0.0060899 1e-05
0.0067508 -0.00615875 1e-05
0.00679489 -0.00622755 1e-05
0.00683937 -0.00629671 1e-05
0.00691125 -0.00640811 1e-05
0.00698338 -0.00651934 1e-05
0.00705578 -0.00663041 1e-05
0.00712846 -0.00674128 1e-05
0.00719878 -0.00684773 1e-05
0.00726948 -0.00695399 1e-05
0.0073404 -0.00706011 1e-05
0.00741155 -0.00716607 1e-05
0.007483 -0.00727182 1e-05
0.00755599 -0.00737909 1e-05
0.00760142 -0.00744538 1e-05
0.00764698 -0.00751157 1e-05
0.00769266 -0.00757768 1e-05
0.00773847 -0.0076437 1e-05
0.00778313 -0.00770772 1e-05
0.00790091 -0.00787568 1e-05
0.00801946 -0.0080431 1e-05
0.00813878 -0.00820997 1e-05
0.0082591 -0.00837612 1e-05
0.00837203 -0.00853002 1e-05
0.00837975 -0.0085404 1e-05
0.00838747 -0.00855077 1e-05
0.00839519 -0.00856114 1e-05
0.00840292 -0.0085715 1e-05
0.00841067 -0.00858189 1e-05
0.00852164 -0.00873051 1e-05
0.00863343 -0.00887851 1e-05
0.00874606 -0.00902587 1e-05
0.00885956 -0.00917257 1e-05
0.00896551 -0.00930764 1e-05
0.00903014 -0.00938898 1e-05
0.00909503 -0.00947011 1e-05
0.00916019 -0.00955102 1e-05
0.00922565 -0.00963169 1e-05
0.00929329 -0.00971439 1e-05
0.00934735 -0.00977996 1e-05
0.00940161 -0.00984538 1e-05
0.00945606 -0.00991064 1e-05
0.00951071 -0.00997573 1e-05
0.0095636 -0.0100383 1e-05
[...]
POINT_DATA 12278
 FIELD attributes 1
U 3 12278 float
9.72339 	0.381311 	0 9.77871 	0.305049 	0 9.83405 	0.228765 	0 9.8894 	0.152465 	0 9.94476 	0.0761532 	0 10 	0 	0
10.0671 	0.375483 	0 10.0537 	0.300387 	0 10.0403 	0.225271 	0 10.0268 	0.150141 	0 10.0134 	0.0750009 	0 10 	0 	0
10.0364 	0.141572 	0 10.0291 	0.113304 	0 10.0218 	0.085089 	0 10.0145 	0.0569263 	0 10.0071 	0.0288164 	0 10 	0 	0
10.0137 	0.111519 	0 10.011 	0.0892151 	0 10.0082 	0.0669108 	0 10.0055 	0.0446062 	0 10.0027 	0.0223012 	0 10 	0 	0
10.0097 	0.0196534 	0 10.0078 	0.0157227 	0 10.0058 	0.011792 	0 10.0039 	0.00786135 	0 10.0019 	0.00393066 	0 10 	0 	0
10.0102 	-0.0372875 	0 10.0082 	-0.02983 	0 10.0061 	-0.0223725 	0 10.0041 	-0.0149149 	0 10.002 	-0.00745741 	0 10 	0 	0
10.0174 	-0.148997 	0 10.0139 	-0.119197 	0 10.0105 	-0.0893967 	0 10.007 	-0.0595953 	0 10.0035 	-0.0297932 	0 10 	0 	0
10.0362 	-0.265901 	0 10.029 	-0.212721 	0 10.0217 	-0.159534 	0 10.0145 	-0.106342 	0 10.0072 	-0.053146 	0 10 	0 	0
10.0563 	-0.387167 	0 10.045 	-0.309734 	0 10.0338 	-0.23228 	0 10.0225 	-0.15481 	0 10.0112 	-0.0773281 	0 10 	0 	0
8.30133 	-0.114495 	0 8.4287 	-0.091596 	0 8.55659 	-0.0686962 	0 8.68498 	-0.0457957 	0 8.81385 	-0.0228949 	0 8.94315 	0 	0
9.72339 	0.381311 	0 9.5415 	0.555241 	0 9.39671 	0.663651 	0 9.26203 	0.754272 	0 9.2183 	0.780385 	0 8.95344 	1.27614 	0 8.70578 	1.91036 	0 8.48173 	2.72184 	0 8.46724 	2.67123 	0 8.47252 	2.45986 	0 8.50117 	2.35314 	0 8.52498 	2.2443 	0 8.51221 	2.16311 	0 8.42487 	2.14738 	0 8.30214 	2.12559 	0 8.30117 	1.9821 	0 8.28715 	1.83798 	0 8.21181 	1.72569 	0 8.035 	1.67507 	0 7.86306 	1.62575 	0 7.68323 	1.56759 	0 7.50177 	1.50875 	0 7.42793 	1.45839 	0 7.36148 	1.40771 	0 7.27865 	1.34671 	0 7.22249 	1.32376 	0 7.16614 	1.3007 	0 7.10958 	1.27753 	0 7.07928 	1.2544 	0 7.05291 	1.23121 	0 6.97394 	1.13838 	0 6.88841 	1.05226 	0 6.79883 	0.980329 	0 6.71191 	0.932083 	0 6.6228 	0.883658 	0 6.55089 	0.833774 	0 6.49229 	0.787587 	0 6.44246 	0.743855 	0 6.3887 	0.69909 	0 6.31694 	0.642265 	0 6.31477 	0.64017 	0 6.3132 	0.638345 	0 6.31172 	0.636559 	0 6.31023 	0.63477 	0 6.30868 	0.632931 	0 6.27132 	0.597061 	0 6.23151 	0.560862 	0 6.18922 	0.524331 	0 6.1444 	0.487462 	0 6.10943 	0.456251 	0 6.07602 	0.420968 	0 6.04571 	0.390994 	0 6.01701 	0.364549 	0 5.99443 	0.339599 	0 5.97316 	0.315194 	0 5.95246 	0.28906 	0 5.92972 	0.262717 	0 5.91348 	0.241655 	0 5.9034 	0.222651 	0 5.89182 	0.203584 	0 5.87917 	0.183516 	0 5.86498 	0.16335 	0 5.85627 	0.143785 	0 5.85337 	0.127396 	0 5.8492 	0.11098 	0 5.84297 	0.0943451 	0 5.8355 	0.0776685 	0 5.83342 	0.0589659 	0 5.83631 	0.0430915 	0 5.83801 	0.0272176 	0 5.83718 	0.0119195 	0 5.83535 	-0.00344748 	0 5.83922 	-0.0225494 	0 5.84733 	-0.0400415 	0 5.85425 	-0.0574795 	0 5.85861 	-0.073547 	0 5.86186 	-0.0895885 	0 5.87122 	-0.110977 	0 5.88469 	-0.132516 	0 5.89666 	-0.153983 	0 5.90651 	-0.17335 	0 5.91508 	-0.192648 	0 5.92941 	-0.218108 	0 5.94829 	-0.247064 	0 5.96529 	-0.275881 	0 5.98123 	-0.302115 	0 5.99553 	-0.328198 	0 6.01456 	-0.359813 	0 6.03867 	-0.400979 	0 6.06027 	-0.441901 	0 6.08261 	-0.480366 	0 6.10482 	-0.52099 	0 6.13012 	-0.567648 	0 6.1546 	-0.619721 	0 6.17873 	-0.679533 	0 6.20612 	-0.738531 	0 6.23746 	-0.811925 	0 6.26494 	-0.884783 	0 6.28859 	-0.957102 	0 6.3087 	-1.02981 	0 6.30871 	-1.02986 	0 6.30873 	-1.02991 	0 6.30874 	-1.02997 	0 6.30876 	-1.03002 	0 6.30877 	-1.03008 	0 6.33257 	-1.12727 	0 6.35111 	-1.22236 	0 6.36453 	-1.31537 	0 6.37529 	-1.41407 	0 6.38857 	-1.53828 	0 6.40637 	-1.66403 	0 6.41793 	-1.78768 	0 6.40581 	-1.9302 	2.62104e-20 6.36944 	-2.07917 	5.37318e-20 6.31929 	-2.23395 	8.12342e-20 6.31108 	-2.28439 	2.33995e-20 6.2989 	-2.33171 	5.8538e-21 6.28255 	-2.37572 	3.12768e-20 6.26563 	-2.41948 	5.73199e-20 6.25129 	-2.45516 	7.91935e-20 6.2249 	-2.55103 	1.7897e-19 6.19656 	-2.64634 	2.82909e-19 6.16627 	-2.74107 	3.90983e-19 6.12011 	-2.82222 	2.74346e-19 6.06356 	-2.90257 	6.24912e-20 5.9836 	-3.02224 	4.9275e-20 5.89843 	-3.13893 	3.61886e-20 5.80156 	-3.23678 	8.57318e-21 5.7003 	-3.33269 	-1.80425e-20 5.62542 	-3.39921 	-3.61705e-20 5.61627 	-3.40852 	-3.59625e-20 5.60709 	-3.41782 	-3.57395e-20 5.59783 	-3.42647 	-3.68907e-20 5.58844 	-3.43343 	-4.16994e-20 5.57891 	-3.44045 	-4.65539e-20 5.45901 	-3.53666 	-2.82855e-20 5.33379 	-3.63092 	-9.44414e-21 5.20775 	-3.70786 	1.28121e-22 5.08153 	-3.76676 	-1.8065e-22 4.93257 	-3.83204 	7.74215e-23 4.93231 	-3.83219 	4.43045e-23 4.93204 	-3.83234 	1.11869e-23 4.9318 	-3.83244 	1.96392e-23 4.93157 	-3.83252 	4.92966e-23 4.93134 	-3.83259 	7.89639e-23 4.80564 	-3.88193 	1.13231e-21 4.67584 	-3.92967 	2.49002e-21 4.54893 	-3.96617 	4.21783e-21 4.43131 	-3.98326 	6.34278e-21 4.33599 	-3.99563 	8.21338e-21 4.30565 	-4.00329 	1.33617e-20 4.27508 	-4.01088 	1.85481e-20 4.24977 	-4.01259 	9.22469e-21 4.22458 	-4.01396 	-8.28348e-22 4.19828 	-4.01531 	-1.12516e-20 4.12448 	-4.02262 	-6.36154e-20 4.0495 	-4.0294 	-1.15611e-19 3.97348 	-4.03551 	-1.65795e-19 3.90933 	-4.02998 	-1.01562e-19 3.85052 	-4.0246 	-4.30493e-20 3.77293 	-4.02674 	4.18007e-21 3.69545 	-4.026 	4.20031e-20 3.62355 	-4.01388 	3.42042e-20 3.55057 	-4.00128 	2.66762e-20 3.46851 	-3.98679 	1.8648e-20 3.46519 	-3.98637 	1.92713e-20 3.46186 	-3.98596 	1.98948e-20 3.45853 	-3.98554 	2.05184e-20 3.45539 	-3.98482 	2.10418e-20 3.45234 	-3.98398 	2.15239e-20 3.3842 	-3.97195 	1.41271e-20 3.31401 	-3.9578 	7.41899e-21 3.24261 	-3.94294 	7.0553e-22 3.17082 	-3.91588 	6.16706e-21 3.10318 	-3.88911 	1.23503e-20 3.06109 	-3.8791 	3.47273e-20 3.01868 	-3.8677 	5.06303e-20 2.97707 	-3.84873 	2.3362e-20 2.93506 	-3.82954 	-3.84944e-21 2.88984 	-3.80884 	-3.27833e-20 2.87173 	-3.80229 	-3.88851e-20 2.85353 	-3.79568 	-4.49891e-20 2.83525 	-3.78903 	-5.10953e-20 2.81705 	-3.77996 	-5.72868e-20 2.79914 	-3.77045 	-6.33972e-20 2.74574 	-3.74939 	-1.07122e-19 2.69151 	-3.72783 	-1.50967e-19 2.63671 	-3.69718 	-1.46194e-19 2.58229 	-3.6598 	-8.81892e-20 2.52977 	-3.6237 	-3.27112e-20 2.51284 	-3.61477 	2.06829e-21 2.49586 	-3.60564 	3.5245e-20 2.47998 	-3.59324 	2.99895e-20 2.46404 	-3.5808 	2.47691e-20 2.44761 	-3.56798 	1.94485e-20 2.41708 	-3.5489 	5.65561e-20 2.38629 	-3.52962 	9.35842e-20 2.35524 	-3.51015 	1.30531e-19 2.32525 	-3.48564 	1.03446e-19 2.29586 	-3.4612 	7.23014e-20 2.25892 	-3.43551 	4.24485e-20 2.22153 	-3.40949 	1.25632e-20 2.18696 	-3.37663 	-2.9048e-21 2.15215 	-3.34342 	-1.81115e-20 2.11502 	-3.30809 	-3.42176e-20 2.11132 	-3.30523 	-3.17972e-20 2.10761 	-3.30237 	-2.93797e-20 2.10389 	-3.29951 	-2.69649e-20 2.1004 	-3.29608 	-3.40067e-20 2.09692 	-3.29265 	-4.13449e-20 2.0602 	-3.26036 	-1.64557e-19 2.02448 	-3.22603 	-2.56546e-19 1.98942 	-3.18992 	-2.9965e-19 1.95719 	-3.14903 	-1.93316e-19 1.92543 	-3.1088 	-8.89832e-20 1.91682 	-3.09912 	-7.78898e-20 1.9082 	-3.08941 	-6.67921e-20 1.90086 	-3.07857 	-5.65186e-20 1.89382 	-3.06746 	-4.64358e-20 1.88673 	-3.05626 	-3.62772e-20 1.8648 	-3.03088 	-1.17411e-20 1.84276 	-3.0054 	1.28165e-20 1.82117 	-2.97925 	2.99895e-20 1.80214 	-2.95027 	1.21564e-20 1.78325 	-2.92153 	-5.51321e-21 1.76986 	-2.90257 	-2.11324e-20 1.75644 	-2.88358 	-3.674e-20 1.7452 	-2.86329 	-1.81077e-20 1.7349 	-2.84248 	1.47257e-20 1.7246 	-2.82164 	4.76655e-20 1.71227 	-2.80445 	1.21647e-20 1.69992 	-2.78724 	-2.32859e-20 1.68821 	-2.76954 	-3.49016e-20 1.67813 	-2.75069 	1.29723e-20 1.66809 	-2.7319 	6.0715e-20 1.65477 	-2.7077 	1.97478e-19 1.64147 	-2.68352 	3.34179e-19 1.63054 	-2.65858 	2.96376e-19 1.62139 	-2.63314 	1.3362e-19 1.61248 	-2.6081 	-2.78263e-20 1.60467 	-2.59474 	-5.73785e-20 1.59687 	-2.58138 	-8.69388e-20 1.58988 	-2.56768 	-8.97828e-20 1.584 	-2.55352 	-5.62857e-20 1.57814 	-2.53937 	-2.27619e-20 1.56815 	-2.51485 	-2.46239e-20 1.55827 	-2.49043 	-2.65256e-20 1.55034 	-2.46589 	-1.93327e-20 1.5449 	-2.44119 	-5.03104e-22 1.53983 	-2.41738 	1.77455e-20 1.53319 	-2.4029 	2.97196e-20 1.52657 	-2.38843 	4.1689e-20 1.52126 	-2.37374 	4.572e-20 1.51691 	-2.35891 	4.40965e-20 1.51259 	-2.34404 	4.2443e-20 1.50735 	-2.32431 	2.55663e-20 1.50224 	-2.30469 	8.66397e-21 1.49821 	-2.28528 	-3.13068e-21 1.49686 	-2.26623 	-1.11907e-21 1.49576 	-2.24807 	8.13407e-22 1.48879 	-2.22756 	7.6259e-20 1.48193 	-2.20713 	1.51932e-19 1.47766 	-2.18688 	1.25791e-19 1.47433 	-2.16677 	6.78085e-20 1.4711 	-2.14649 	8.99845e-21 1.4699 	-2.13595 	-2.33583e-20 1.46876 	-2.12546 	-5.56714e-20 1.46787 	-2.11514 	-8.19957e-20 1.4694 	-2.10625 	-3.64817e-20 1.47097 	-2.09769 	7.88488e-21 1.46384 	-2.06747 	4.60807e-21 1.45701 	-2.03754 	1.31347e-21 1.45624 	-2.01097 	-2.34559e-20 1.45681 	-1.98527 	-5.17318e-20 1.45942 	-1.9623 	-7.48593e-20 1.45894 	-1.96034 	-6.85123e-20 1.45847 	-1.95837 	-6.22201e-20 1.45842 	-1.95662 	-6.69709e-20 1.45837 	-1.95486 	-7.17193e-20 1.45833 	-1.9531 	-7.64781e-20 1.45645 	-1.92818 	-2.09488e-19 1.45495 	-1.90356 	-3.41764e-19 1.45417 	-1.87952 	-4.46526e-19 1.45842 	-1.8593 	-1.91166e-19 1.46279 	-1.84094 	4.70818e-20 1.46064 	-1.82603 	1.11182e-19 1.45861 	-1.81122 	1.75063e-19 1.45953 	-1.79854 	1.42352e-19 1.46057 	-1.78596 	1.09741e-19 1.46178 	-1.77313 	7.63103e-20 1.4627 	-1.76356 	6.73872e-20 1.46371 	-1.75407 	5.84859e-20 1.4648 	-1.74464 	4.96069e-20 1.46741 	-1.73646 	5.16786e-20 1.47007 	-1.7287 	5.41939e-20 1.46956 	-1.70543 	2.95042e-20 1.4694 	-1.68246 	4.75272e-21 1.47231 	-1.66189 	2.02284e-20 1.47691 	-1.64243 	4.5314e-20 1.48285 	-1.62533 	6.85445e-20 1.48284 	-1.62125 	6.74251e-20 1.48292 	-1.61725 	6.75894e-20 1.48351 	-1.61363 	7.51539e-20 1.48411 	-1.61002 	8.27164e-20 1.48474 	-1.60637 	9.03673e-20 1.48744 	-1.59064 	1.39733e-19 1.49041 	-1.5751 	1.88977e-19 1.49365 	-1.55976 	2.38095e-19 1.49883 	-1.54627 	1.68532e-19 1.50424 	-1.53409 	8.22676e-20 1.5059 	-1.5146 	1.55643e-19 1.5084 	-1.49583 	2.03753e-19 1.51302 	-1.47901 	1.61894e-19 1.51799 	-1.46245 	1.20566e-19 1.52369 	-1.44495 	7.67731e-20 1.52371 	-1.44489 	7.6542e-20 1.52374 	-1.44482 	7.63109e-20 1.52376 	-1.44476 	7.60798e-20 1.52379 	-1.4447 	7.6387e-20 1.52382 	-1.44465 	7.693e-20 1.52822 	-1.42762 	1.26509e-19 1.53302 	-1.41087 	1.74551e-19 1.5382 	-1.39439 	2.22202e-19 1.54497 	-1.37967 	1.84236e-19 1.55207 	-1.36675 	1.17109e-19 1.5554 	-1.34914 	2.03135e-19 1.55961 	-1.33243 	2.39611e-19 1.56525 	-1.31729 	1.74869e-19 1.57123 	-1.30238 	1.10341e-19 1.57759 	-1.28884 	3.78264e-20 1.57782 	-1.28784 	3.75726e-20 1.57809 	-1.28689 	3.67357e-20 1.57841 	-1.286 	3.51633e-20 1.57874 	-1.28511 	3.35906e-20 1.57906 	-1.28422 	3.20087e-20 1.58428 	-1.27028 	-1.34825e-20 1.58979 	-1.25653 	-5.88947e-20 1.59561 	-1.24299 	-1.04225e-19 1.60231 	-1.23065 	-8.93425e-20 1.60936 	-1.21992 	-3.00649e-20 1.61381 	-1.20441 	-7.54495e-20 1.61857 	-1.18909 	-1.21247e-19 1.62464 	-1.17571 	-1.03838e-19 1.63194 	-1.16306 	-6.09347e-20 1.63997 	-1.15168 	3.29639e-22 1.64226 	-1.14484 	2.88197e-20 1.64487 	-1.13851 	2.83083e-20 1.64774 	-1.13255 	7.12846e-21 1.65066 	-1.12662 	-1.40005e-20 1.6538 	-1.12045 	-3.61322e-20 1.65744 	-1.11362 	-6.80385e-20 1.66117 	-1.10685 	-9.98332e-20 1.66498 	-1.10014 	-1.31516e-19 1.66902 	-1.09385 	-1.31077e-19 1.67326 	-1.08837 	-7.98808e-20 1.6784 	-1.07463 	-1.11917e-19 1.68443 	-1.06138 	-1.36106e-19 1.69176 	-1.04897 	-1.45547e-19 1.69995 	-1.03836 	-1.35218e-19 1.70803 	-1.0284 	-1.2523e-19 1.71381 	-1.01489 	-2.7553e-19 1.72007 	-1.00219 	-3.50367e-19 1.72696 	-0.990751 	-2.96296e-19 1.7341 	-0.979471 	-2.42731e-19 1.7424 	-0.969395 	-1.16068e-19 1.74451 	-0.965053 	-8.2501e-20 1.74676 	-0.961161 	-8.47187e-20 1.74907 	-0.957405 	-9.65993e-20 1.75141 	-0.953665 	-1.08432e-19 1.75388 	-0.949781 	-1.20724e-19 1.75874 	-0.942428 	-1.24332e-19 1.76372 	-0.935142 	-1.27912e-19 1.76882 	-0.927922 	-1.31465e-19 1.77406 	-0.920992 	-1.29656e-19 1.7794 	-0.915228 	-1.05276e-19 1.78544 	-0.903297 	-1.32886e-19 1.7925 	-0.89194 	-1.44775e-19 1.80044 	-0.881087 	-1.43547e-19 1.80875 	-0.87202 	-1.0297e-19 1.81703 	-0.863489 	-6.09453e-20 1.82365 	-0.851797 	-1.64904e-19 1.83052 	-0.840271 	-2.67011e-19 1.83768 	-0.830579 	-2.25696e-19 1.8459 	-0.821473 	-1.27943e-19 1.85458 	-0.813028 	4.39095e-23 1.86119 	-0.80247 	1.42206e-22 1.86797 	-0.793545 	1.07588e-22 1.87494 	-0.784763 	6.89458e-23 1.8821 	-0.776081 	2.98743e-23 1.89048 	-0.76631 	-1.51019e-23 1.89086 	-0.765895 	7.07533e-22 1.89124 	-0.76548 	1.4297e-21 1.89162 	-0.765065 	2.15138e-21 1.892 	-0.764651 	2.8726e-21 1.89236 	-0.764318 	4.21054e-22 1.89984 	-0.754864 	-2.52683e-20 1.90763 	-0.74558 	-4.71377e-20 1.91565 	-0.736408 	-6.88287e-20 1.92388 	-0.727358 	-8.98858e-20 1.93179 	-0.72037 	-3.1202e-20 1.93867 	-0.710414 	-2.11315e-20 1.94624 	-0.700898 	-1.39332e-20 1.95462 	-0.691914 	-1.04199e-20 1.96279 	-0.684642 	-1.59878e-20 1.97093 	-0.677774 	-2.24528e-20 1.97825 	-0.668067 	5.3938e-20 1.98578 	-0.658462 	1.30441e-19 1.99321 	-0.650374 	1.32358e-19 2.00152 	-0.643428 	6.57218e-20 2.00986 	-0.636685 	1.6326e-22 2.01757 	-0.627232 	9.71029e-23 2.0251 	-0.618855 	-1.11773e-20 2.03252 	-0.611314 	-3.10228e-20 2.04013 	-0.603852 	-5.08447e-20 2.04859 	-0.597213 	-6.38741e-20 2.0555 	-0.589507 	-1.06453e-19 2.06203 	-0.582996 	-1.10009e-19 2.06869 	-0.576542 	-1.13625e-19 2.0755 	-0.570146 	-1.173e-19 2.08347 	-0.562864 	-1.21589e-19 2.08423 	-0.562199 	-1.22772e-19 2.08499 	-0.561535 	-1.23954e-19 2.08575 	-0.560871 	-1.25136e-19 2.08652 	-0.560208 	-1.26317e-19 2.08722 	-0.55967 	-1.22312e-19 2.09468 	-0.55237 	-9.43326e-20 2.10237 	-0.545212 	-6.50894e-20 2.11024 	-0.538123 	-3.58841e-20 2.11828 	-0.531103 	-6.71682e-21 2.12555 	-0.525613 	1.79222e-22 2.1327 	-0.517847 	6.74855e-20 2.14053 	-0.510865 	8.63852e-20 2.14854 	-0.503973 	1.03524e-19 2.1562 	-0.497896 	8.43359e-20 2.16321 	-0.492977 	1.49089e-20 2.1706 	-0.485454 	-5.50303e-20 2.1782 	-0.47808 	-1.18721e-19 2.18628 	-0.471439 	-1.34999e-19 2.19319 	-0.466574 	-6.72692e-20 2.20017 	-0.461793 	-7.25112e-23 2.20775 	-0.454513 	-3.96093e-23 2.21551 	-0.447291 	-6.87966e-24 2.22263 	-0.441427 	0 2.22947 	-0.436709 	0 2.23638 	-0.432066 	0 2.24413 	-0.425028 	0 2.2518 	-0.418309 	0 2.2583 	-0.413074 	0 2.265 	-0.408298 	-1.01523e-20 2.27181 	-0.403792 	-2.5174e-20 2.27969 	-0.396994 	-6.23841e-21 2.2866 	-0.391356 	-6.35064e-21 2.2931 	-0.386305 	-1.58165e-20 2.29972 	-0.381319 	-2.67456e-20 2.30639 	-0.376952 	-6.64866e-20 2.3141 	-0.370638 	-2.84726e-20 2.32045 	-0.365737 	-3.02621e-20 2.32692 	-0.360869 	-3.20233e-20 2.33351 	-0.356034 	-3.37566e-20 2.3401 	-0.351517 	-4.64709e-20 2.34635 	-0.346653 	-3.6911e-20 2.35196 	-0.342436 	-3.83622e-20 2.35766 	-0.338243 	-3.97919e-20 2.36346 	-0.334075 	-4.12003e-20 2.37031 	-0.329253 	-4.28144e-20 2.37083 	-0.328898 	-4.26966e-20 2.37135 	-0.328544 	-4.2579e-20 2.37187 	-0.32819 	-4.24615e-20 2.37239 	-0.327836 	-4.23442e-20 2.37285 	-0.327537 	-4.2521e-20 2.37902 	-0.322947 	-4.92046e-20 2.38528 	-0.318411 	-5.37539e-20 2.39165 	-0.313902 	-5.82261e-20 2.39813 	-0.309422 	-6.26219e-20 2.40377 	-0.305694 	-3.8967e-20 2.4101 	-0.300978 	-7.51583e-20 2.41626 	-0.296618 	-8.72915e-20 2.42253 	-0.292283 	-9.93659e-20 2.4289 	-0.287973 	-1.11382e-19 2.43354 	-0.284986 	-7.13069e-20 2.44012 	-0.280201 	-1.1858e-19 2.44616 	-0.276014 	-1.21107e-19 2.4523 	-0.27185 	-1.23587e-19 2.45819 	-0.267945 	-1.19e-19 2.46217 	-0.265381 	-7.5346e-20 2.46878 	-0.260764 	-1.17874e-19 2.47494 	-0.256559 	-1.28009e-19 2.48094 	-0.252563 	-1.22405e-19 2.48588 	-0.249301 	-9.47998e-20 2.48962 	-0.246843 	-4.31989e-20 2.4962 	-0.242429 	4.31574e-20 2.50259 	-0.238209 	1.0385e-19 2.50843 	-0.234379 	1.09346e-19 2.51241 	-0.23169 	5.03679e-20 2.5159 	-0.229335 	-2.66969e-20 2.52244 	-0.22512 	-1.75936e-20 2.52909 	-0.220925 	-8.50012e-21 2.5346 	-0.217341 	8.66906e-21 2.53778 	-0.215073 	2.59572e-20 2.54101 	-0.212818 	4.32202e-20 2.54749 	-0.2088 	-4.33231e-20 2.55407 	-0.204798 	-1.29879e-19 2.55906 	-0.201576 	-1.41244e-19 2.56198 	-0.199409 	-7.10832e-20 2.56495 	-0.197253 	-1.0211e-21 2.57136 	-0.193425 	-1.07484e-22 2.57786 	-0.189613 	7.85334e-22 2.58237 	-0.186727 	-1.56707e-20 2.58502 	-0.184658 	-4.94169e-20 2.58773 	-0.182599 	-8.31381e-20 2.59405 	-0.178959 	-4.76828e-20 2.60046 	-0.175331 	-1.22433e-20 2.60453 	-0.172755 	-8.54654e-21 2.60692 	-0.170782 	-2.59299e-20 2.60936 	-0.168818 	-4.32976e-20 2.61557 	-0.16536 	-2.59872e-20 2.62188 	-0.161916 	-8.7098e-21 2.62549 	-0.159638 	-9.45425e-21 2.62768 	-0.157741 	-2.60533e-20 2.62985 	-0.15587 	-4.33786e-20 2.63596 	-0.152589 	-1.64885e-19 2.6416 	-0.149535 	-2.6179e-19 2.64505 	-0.147375 	-2.57099e-19 2.64731 	-0.145497 	-1.64746e-19 2.64922 	-0.143715 	-4.33591e-20 2.65521 	-0.140608 	-2.59813e-20 2.66021 	-0.137901 	-8.62102e-21 2.66349 	-0.135857 	8.7088e-21 2.66584 	-0.13401 	2.13077e-20 2.66748 	-0.132317 	3.02497e-20 2.67335 	-0.129379 	9.13175e-20 2.67774 	-0.126981 	1.18691e-19 2.68086 	-0.125049 	1.17017e-19 2.6833 	-0.123246 	9.21094e-20 2.68467 	-0.121639 	3.16737e-20 2.69041 	-0.118864 	2.32318e-20 2.69422 	-0.116742 	1.48062e-20 2.69717 	-0.114918 	6.38558e-21 2.6997 	-0.113169 	0 2.70082 	-0.111646 	0 2.70643 	-0.109029 	0 2.70967 	-0.107151 	1.47194e-20 2.71245 	-0.105431 	3.25497e-20 2.71507 	-0.103743 	5.03648e-20 2.71594 	-0.102302 	6.81066e-20 2.72142 	-0.099839 	1.90102e-19 2.72413 	-0.0981764 	1.93617e-19 2.72675 	-0.096558 	1.9109e-19 2.72941 	-0.0949428 	1.88613e-19 2.73008 	-0.0935753 	7.02134e-20 2.73522 	-0.0913123 	5.31994e-20 2.73764 	-0.0897885 	3.62386e-20 2.74009 	-0.0882675 	1.92696e-20 2.74259 	-0.0867493 	2.29248e-21 2.74327 	-0.0854332 	1.46989e-20 2.74796 	-0.083387 	-4.34263e-24 2.75021 	-0.0819575 	-2.98884e-23 2.75251 	-0.0805304 	-5.5424e-23 2.75485 	-0.0791058 	-8.09495e-23 2.75553 	-0.0778453 	6.38936e-21 2.7598 	-0.0759941 	-5.08084e-20 2.7619 	-0.0746553 	-4.95092e-20 2.76405 	-0.0733185 	-4.82375e-20 2.76623 	-0.0719838 	-4.69932e-20 2.76691 	-0.070782 	-5.64394e-21 2.77078 	-0.0691064 	8.55956e-23 2.77274 	-0.0678546 	6.04896e-23 2.77473 	-0.0666046 	3.53738e-23 2.77676 	-0.0653564 	1.02483e-23 2.77744 	-0.0642153 	0 2.78095 	-0.0626976 	1.11903e-20 2.78276 	-0.0615293 	3.75135e-20 2.78461 	-0.0603625 	6.3828e-20 2.78649 	-0.0591973 	9.01338e-20 2.78716 	-0.0581182 	1.07496e-19 2.79033 	-0.0567427 	1.73098e-19 2.792 	-0.0556543 	1.72019e-19 2.79371 	-0.0545672 	1.70969e-19 2.79545 	-0.0534814 	1.69946e-19 2.79611 	-0.0524647 	1.02486e-19 2.79896 	-0.0512175 	8.75806e-20 2.80051 	-0.0502055 	5.31472e-20 2.80208 	-0.0491946 	1.87085e-20 2.80368 	-0.0481848 	-1.57357e-20 2.80432 	-0.0472302 	-4.66898e-20 2.80689 	-0.0460988 	-9.02088e-20 2.80831 	-0.0451596 	-8.90009e-20 2.80975 	-0.0442214 	-8.78268e-20 2.81122 	-0.0432842 	-8.66865e-20 2.81183 	-0.0423911 	-3.70502e-20 2.81415 	-0.0413642 	-4.95345e-20 2.81544 	-0.0404945 	-3.17139e-20 2.81676 	-0.0396256 	-1.39112e-20 2.81811 	-0.0387574 	3.87367e-21 2.81869 	-0.0379247 	4.31037e-20 2.82077 	-0.0369924 	4.98625e-20 2.82195 	-0.0361887 	6.73334e-20 2.82315 	-0.0353857 	8.47961e-20 2.82438 	-0.0345833 	1.0225e-19 2.82492 	-0.0338094 	1.22065e-19 2.82679 	-0.0329628 	1.46226e-19 2.82786 	-0.0322218 	1.37004e-19 2.82896 	-0.0314814 	1.27803e-19 2.83007 	-0.0307415 	1.18623e-19 2.83056 	-0.0300245 	8.16883e-20 2.83225 	-0.0292558 	5.80646e-20 2.83322 	-0.0285742 	3.23165e-20 2.83421 	-0.027893 	6.56664e-21 2.83522 	-0.0272123 	-1.91851e-20 2.83566 	-0.0265502 	-4.10463e-20 2.83718 	-0.0258524 	-5.61635e-20 2.83805 	-0.025227 	-3.83897e-20 2.83894 	-0.0246019 	-2.0642e-20 2.83986 	-0.0239772 	-2.92035e-21 2.84024 	-0.0233678 	4.84826e-20 2.84161 	-0.0227345 	1.02319e-19 2.8424 	-0.0221621 	1.09999e-19 2.8432 	-0.02159 	1.17724e-19 2.84402 	-0.0210182 	1.25491e-19 2.84433 	-0.020459 	8.86213e-20 2.84559 	-0.0198848 	7.17985e-20 2.84629 	-0.0193623 	6.32548e-20 2.847 	-0.0188401 	5.4707e-20 2.84773 	-0.0183181 	4.61551e-20 2.84798 	-0.0178068 	3.76059e-20 2.84913 	-0.0172866 	1.44073e-20 2.84975 	-0.016811 	1.47548e-20 2.85039 	-0.0163357 	1.50797e-20 2.85104 	-0.0158606 	1.5382e-20 2.85122 	-0.0153945 	4.14742e-20 2.85227 	-0.0149238 	3.98573e-20 2.