# vtk DataFile Version 2.0
track0
ASCII
DATASET POLYDATA
POINTS 12278 float
-0.0205 0.001 1e-05
-0.02052 0.000999216 1e-05
-0.02054 0.000998592 1e-05
-0.02056 0.000998126 1e-05
-0.02058 0.000997818 1e-05
-0.0206 0.000997665 1e-05
-0.0205 0.00367778 1e-05
-0.02052 0.00367703 1e-05
-0.02054 0.00367643 1e-05
-0.02056 0.00367599 1e-05
-0.02058 0.00367569 1e-05
-0.0206 0.00367554 1e-05
-0.0205 0.00635556 1e-05
-0.02052 0.00635527 1e-05
-0.02054 0.00635505 1e-05
-0.02056 0.00635488 1e-05
-0.02058 0.00635476 1e-05
-0.0206 0.00635471 1e-05
-0.0205 0.00903333 1e-05
-0.02052 0.00903311 1e-05
-0.02054 0.00903293 1e-05
-0.02056 0.0090328 1e-05
-0.02058 0.00903271 1e-05
-0.0206 0.00903266 1e-05
-0.0205 0.0117111 1e-05
-0.02052 0.0117111 1e-05
-0.02054 0.011711 1e-05
-0.02056 0.011711 1e-05
-0.02058 0.011711 1e-05
-0.0206 0.011711 1e-05
-0.0205 0.0143889 1e-05
-0.02052 0.014389 1e-05
-0.02054 0.014389 1e-05
-0.02056 0.0143891 1e-05
-0.02058 0.0143891 1e-05
-0.0206 0.0143891 1e-05
-0.0205 0.0170667 1e-05
-0.02052 0.017067 1e-05
-0.02054 0.0170672 1e-05
-0.02056 0.0170674 1e-05
-0.02058 0.0170675 1e-05
-0.0206 0.0170676 1e-05
-0.0205 0.0197444 1e-05
-0.02052 0.019745 1e-05
-0.02054 0.0197454 1e-05
-0.02056 0.0197457 1e-05
-0.02058 0.0197459 1e-05
-0.0206 0.019746 1e-05
-0.0205 0.0224222 1e-05
-0.02052 0.022423 1e-05
-0.02054 0.0224236 1e-05
-0.02056 0.0224241 1e-05
-0.02058 0.0224244 1e-05
-0.0206 0.0224245 1e-05
-0.0205 0.0251 1e-05
-0.02052 0.0251003 1e-05
-0.02054 0.0251005 1e-05
-0.02056 0.0251007 1e-05
-0.02058 0.0251008 1e-05
-0.0206 0.0251008 1e-05
-0.0205 0.001 1e-05
-0.0203632 0.00100536 1e-05
-0.0202266 0.00101331 1e-05
-0.0200901 0.00102296 1e-05
-0.0200427 0.00102682 1e-05
-0.0198376 0.00104418 1e-05
-0.0196338 0.00107322 1e-05
-0.0194327 0.00111734 1e-05
-0.0192368 0.00118024 1e-05
-0.0190172 0.00124951 1e-05
-0.0189002 0.00128348 1e-05
-0.0187827 0.00131598 1e-05
-0.0186649 0.001347 1e-05
-0.0185469 0.001377 1e-05
-0.0183807 0.00141936 1e-05
-0.0182041 0.00146458 1e-05
-0.0180267 0.00150692 1e-05
-0.0178487 0.0015464 1e-05
-0.0176703 0.00158389 1e-05
-0.0174976 0.00161991 1e-05
-0.0172846 0.00166394 1e-05
-0.0170715 0.00170741 1e-05
-0.0168583 0.00175029 1e-05
-0.0166449 0.00179219 1e-05
-0.0163945 0.00184007 1e-05
-0.0163234 0.00185324 1e-05
-0.0162522 0.00186629 1e-05
-0.016181 0.00187921 1e-05
-0.0161097 0.00189201 1e-05
-0.0160387 0.0019046 1e-05
-0.0157586 0.0019535 1e-05
-0.0154779 0.00199931 1e-05
-0.0151968 0.00204225 1e-05
-0.0149154 0.00208283 1e-05
-0.0146381 0.00212134 1e-05
-0.0143838 0.00215527 1e-05
-0.0141293 0.00218766 1e-05
-0.0138747 0.00221855 1e-05
-0.0136198 0.00224797 1e-05
-0.0132934 0.00228369 1e-05
-0.0132791 0.00228515 1e-05
-0.0132648 0.0022866 1e-05
-0.0132504 0.00228805 1e-05
-0.0132361 0.0022895 1e-05
-0.0132214 0.00229098 1e-05
-0.0129776 0.00231543 1e-05
-0.0127337 0.00233865 1e-05
-0.0124897 0.00236061 1e-05
-0.0122456 0.00238129 1e-05
-0.0120025 0.00240058 1e-05
-0.0117547 0.00241909 1e-05
-0.0115067 0.00243627 1e-05
-0.0112587 0.00245231 1e-05
-0.0110106 0.00246734 1e-05
-0.0107632 0.00248136 1e-05
-0.0105252 0.00249391 1e-05
-0.0102872 0.00250547 1e-05
-0.0100491 0.00251602 1e-05
-0.00981105 0.00252575 1e-05
-0.00957337 0.00253471 1e-05
-0.00934491 0.00254261 1e-05
-0.00911643 0.00254974 1e-05
-0.00888792 0.0025561 1e-05
-0.0086594 0.00256171 1e-05
-0.00843108 0.00256668 1e-05
-0.00821175 0.00257085 1e-05
-0.00799241 0.00257439 1e-05
-0.00777306 0.00257731 1e-05
-0.0075537 0.00257952 1e-05
-0.00733443 0.00258114 1e-05
-0.00712387 0.00258213 1e-05
-0.0069133 0.00258256 1e-05
-0.00670273 0.00258243 1e-05
-0.00649216 0.00258162 1e-05
-0.0062816 0.00258018 1e-05
-0.00607944 0.00257819 1e-05
-0.0058773 0.00257565 1e-05
-0.00567516 0.00257257 1e-05
-0.00547303 0.00256874 1e-05
-0.00527083 0.00256419 1e-05
-0.00507675 0.00255912 1e-05
-0.00488269 0.00255343 1e-05
-0.00468865 0.00254711 1e-05
-0.00449464 0.00253997 1e-05
-0.00430044 0.00253191 1e-05
-0.00411412 0.00252329 1e-05
-0.00392784 0.00251388 1e-05
-0.00374159 0.00250369 1e-05
-0.0035554 0.00249255 1e-05
-0.00336883 0.00248016 1e-05
-0.00318995 0.00246712 1e-05
-0.00301115 0.002453 1e-05
-0.00283245 0.00243775 1e-05
-0.00265386 0.00242121 1e-05
-0.00247443 0.00240314 1e-05
-0.0023027 0.00238426 1e-05
-0.00213114 0.00236384 1e-05
-0.00195982 0.00234154 1e-05
-0.00178875 0.00231738 1e-05
-0.00161577 0.00229106 1e-05
-0.00161567 0.00229104 1e-05
-0.00161558 0.00229103 1e-05
-0.00161548 0.00229101 1e-05
-0.00161538 0.00229099 1e-05
-0.00161528 0.00229098 1e-05
-0.00145051 0.00226407 1e-05
-0.00128614 0.00223481 1e-05
-0.00112219 0.00220326 1e-05
-0.000958693 0.00216947 1e-05
-0.000791418 0.00213237 1e-05
-0.000633135 0.00209425 1e-05
-0.000475556 0.00205333 1e-05
-0.000318719 0.00200964 1e-05
-0.000162835 0.00196267 1e-05
0 0.00190952 1e-05
3.73404e-05 0.00189632 1e-05
7.45807e-05 0.00188284 1e-05
0.000111722 0.00186909 1e-05
0.000148767 0.00185508 1e-05
0.000179077 0.00184338 1e-05
0.000248939 0.00181594 1e-05
0.00031839 0.00178748 1e-05
0.000387416 0.001758 1e-05
0.000456002 0.00172751 1e-05
0.000528387 0.00169413 1e-05
0.000634886 0.00164315 1e-05
0.000740278 0.00158992 1e-05
0.00084451 0.00153445 1e-05
0.00094762 0.00147693 1e-05
0.00101987 0.00143468 1e-05
0.00102808 0.00142973 1e-05
0.00103627 0.00142476 1e-05
0.00104445 0.00141977 1e-05
0.00105262 0.00141477 1e-05
0.00106088 0.00140969 1e-05
0.00116821 0.00134351 1e-05
0.00127404 0.00127495 1e-05
0.00137827 0.00120399 1e-05
0.00148099 0.00113086 1e-05
0.00159667 0.00104511 1e-05
0.00159684 0.00104498 1e-05
0.00159701 0.00104485 1e-05
0.00159718 0.00104471 1e-05
0.00159735 0.00104458 1e-05
0.00159752 0.00104445 1e-05
0.00169218 0.000970886 1e-05
0.00178544 0.000895554 1e-05
0.00187721 0.000818423 1e-05
0.00196757 0.000739639 1e-05
0.00203796 0.000676367 1e-05
0.00205804 0.00065787 1e-05
0.00207803 0.000639285 1e-05
0.00209793 0.000620609 1e-05
0.00211778 0.000601871 1e-05
0.00213833 0.000582349 1e-05
0.00219145 0.000531538 1e-05
0.00224408 0.00048021 1e-05
0.00229619 0.000428358 1e-05
0.00234777 0.000375975 1e-05
0.00239406 0.000328255 1e-05
0.00245192 0.000267785 1e-05
0.00250914 0.000206715 1e-05
0.00256573 0.000145061 1e-05
0.00262181 8.29417e-05 1e-05
0.00268334 1.36068e-05 1e-05
0.00268571 1.08854e-05 1e-05
0.00268807 8.16305e-06 1e-05
0.00269044 5.43968e-06 1e-05
0.0026928 2.71531e-06 1e-05
0.00269516 0 1e-05
0.00275905 -7.37367e-05 1e-05
0.00282233 -0.000148005 1e-05
0.00288497 -0.000222813 1e-05
0.00294695 -0.000298173 1e-05
0.00300402 -0.000368654 1e-05
0.00304973 -0.000425945 1e-05
0.00309514 -0.000483482 1e-05
0.00314023 -0.000541261 1e-05
0.00318508 -0.000599236 1e-05
0.00323259 -0.000661225 1e-05
0.00325063 -0.000684999 1e-05
0.00326861 -0.000708812 1e-05
0.00328654 -0.000732665 1e-05
0.00330442 -0.000756559 1e-05
0.00332196 -0.000780089 1e-05
0.0033901 -0.000871877 1e-05
0.00345764 -0.000964107 1e-05
0.00352456 -0.00105679 1e-05
0.00359094 -0.00114986 1e-05
0.0036538 -0.00123896 1e-05
0.00368026 -0.00127686 1e-05
0.00370665 -0.00131482 1e-05
0.00373296 -0.00135283 1e-05
0.00375922 -0.00139087 1e-05
0.00378611 -0.00142995 1e-05
0.00383008 -0.00149405 1e-05
0.00387384 -0.0015583 1e-05
0.00391738 -0.0016227 1e-05
0.00396069 -0.00168726 1e-05
0.00400284 -0.00175044 1e-05
0.00407106 -0.00185328 1e-05
0.00413886 -0.0019564 1e-05
0.00420623 -0.0020598 1e-05
0.00427332 -0.00216339 1e-05
0.00434393 -0.00227308 1e-05
0.00434997 -0.00228252 1e-05
0.004356 -0.00229197 1e-05
0.00436204 -0.00230142 1e-05
0.00436806 -0.00231087 1e-05
0.00437407 -0.0023203 1e-05
0.00445492 -0.00244725 1e-05
0.00453532 -0.00257449 1e-05
0.00461532 -0.00270197 1e-05
0.00469496 -0.00282968 1e-05
0.00477284 -0.00295498 1e-05
0.00479949 -0.00299801 1e-05
0.00482611 -0.00304105 1e-05
0.00485271 -0.00308412 1e-05
0.0048793 -0.00312719 1e-05
0.00490609 -0.00317058 1e-05
0.00496672 -0.00326879 1e-05
0.0050272 -0.00336709 1e-05
0.00508753 -0.00346549 1e-05
0.00514772 -0.00356396 1e-05
0.00520737 -0.00366161 1e-05
0.00526042 -0.00374852 1e-05
0.00531343 -0.00383546 1e-05
0.0053664 -0.00392243 1e-05
0.00541939 -0.00400938 1e-05
0.00547262 -0.00409659 1e-05
0.00551559 -0.00416689 1e-05
0.00555853 -0.00423722 1e-05
0.00560143 -0.00430757 1e-05
0.00564432 -0.00437792 1e-05
0.00568714 -0.00444811 1e-05
0.00575842 -0.00456486 1e-05
0.00582975 -0.00468158 1e-05
0.00590113 -0.00479827 1e-05
0.00597264 -0.00491488 1e-05
0.00604356 -0.00503006 1e-05
0.00607981 -0.0050887 1e-05
0.00611607 -0.00514733 1e-05
0.00615234 -0.00520596 1e-05
0.00618863 -0.00526458 1e-05
0.00622503 -0.00532326 1e-05
0.00630381 -0.00545003 1e-05
0.00638278 -0.00557668 1e-05
0.00646195 -0.00570321 1e-05
0.00654139 -0.00582956 1e-05
0.00661893 -0.0059521 1e-05
0.00666283 -0.00602102 1e-05
0.00670678 -0.00608991 1e-05
0.00675078 -0.00615876 1e-05
0.00679487 -0.00622756 1e-05
0.00683934 -0.00629671 1e-05
0.00691123 -0.00640812 1e-05
0.00698337 -0.00651937 1e-05
0.00705577 -0.00663045 1e-05
0.00712846 -0.00674133 1e-05
0.00719878 -0.0068478 1e-05
0.00726947 -0.00695405 1e-05
0.00734038 -0.00706015 1e-05
0.00741151 -0.0071661 1e-05
0.00748295 -0.00727184 1e-05
0.00755593 -0.00737909 1e-05
0.00760137 -0.0074454 1e-05
0.00764694 -0.00751162 1e-05
0.00769263 -0.00757775 1e-05
0.00773846 -0.00764379 1e-05
0.00778313 -0.00770782 1e-05
0.00790091 -0.00787579 1e-05
0.00801946 -0.00804323 1e-05
0.00813878 -0.0082101 1e-05
0.0082591 -0.00837626 1e-05
0.00837203 -0.00853017 1e-05
0.00837973 -0.00854052 1e-05
0.00838742 -0.00855086 1e-05
0.00839512 -0.0085612 1e-05
0.00840283 -0.00857153 1e-05
0.00841055 -0.00858189 1e-05
0.00852155 -0.00873055 1e-05
0.00863336 -0.00887859 1e-05
0.00874602 -0.00902599 1e-05
0.00885954 -0.00917272 1e-05
0.00896551 -0.00930783 1e-05
0.00903011 -0.00938913 1e-05
0.00909497 -0.00947022 1e-05
0.00916009 -0.00955109 1e-05
0.00922552 -0.00963172 1e-05
0.00929312 -0.00971438 1e-05
0.00934721 -0.00978001 1e-05
0.00940151 -0.00984547 1e-05
0.00945599 -0.00991077 1e-05
0.00951068 -0.0099759 1e-05
0.0095636 -0.0100385 1e-05
[...]
POINT_DATA 12278
 FIELD attributes 2
p 1 12278 float
177014 177096 177168 177231 177285 177330
108947 108965 108981 108996 109008 109018
87753.7 87763.2 87772.6 87781.8 87790.7 87799.1
79936 79942.3 79948.5 79954.6 79960.7 79966.6
77145.1 77154.3 77163.5 77172.7 77181.9 77191.1
77562.4 77576 77589.6 77603.1 77616.7 77630.2
81095.6 81108 81120.3 81132.4 81144.3 81156.1
90922.1 90941.8 90960.8 90979.1 90996.7 91013.6
117354 117387 117417 117445 117471 117495
215473 215283 215091 214897 214701 214503
177014 173408 169081 164503 162837 158905 155522 152872 144706 134665 129223 123794 119855 119245 118393 112347 106448 102327 101431 100564 99582 98599.8 97173.2 95704.8 93989.2 93622.8 93255.8 92888.2 92407.2 91909.5 89989.9 88186 86672 85884.7 85107.9 84422.2 83757.4 83107.6 82455.8 81621.9 81587 81558 81530 81502 81473.2 80940.4 80408.1 79876.3 79345 78919.9 78493.7 78084.5 77686.8 77311.2 76945.2 76595.3 76245 75921.3 75619.8 75318.7 75029.2 74739.6 74461.1 74198.3 73935.6 73682 73428.3 73178.2 72942 72706 72477.1 72248.2 72017.6 71798.2 71579 71365.3 71151.8 70933.2 70722.3 70511.6 70304.5 70097.6 69884.6 69672.2 69460 69248.1 69036.6 68821.5 68593.4 68365.8 68132.9 67897.3 67653.2 67400.5 67134.6 66854.3 66540.6 66228.4 65917.8 65604.8 65604.6 65604.3 65604.1 65603.8 65603.5 65212.3 64826.7 64446.9 64048.8 63568.6 63053.1 62543.4 61842.3 61069.2 60256.1 60007.9 59769.9 59542.9 59316.4 59131.1 58574.2 58015.1 57453.9 56980.6 56512.2 55907.6 55304.9 54765.1 54224 53839.6 53781.5 53723.2 53667.9 53620.3 53572 53018.8 52458.5 51940.5 51468.1 50922.8 50921.7 50920.6 50919.7 50918.9 50918.1 50491 50056.4 49653.9 49318.4 49049.5 48950.2 48850.5 48779.6 48709.9 48637.3 48448.9 48258.1 48065.5 47921.1 47789.1 47616.3 47447.6 47307.9 47166.2 47006.9 47000.5 46994.1 46987.7 46981.9 46976.4 46871.1 46758.8 46644 46530.8 46423.8 46388.3 46351.5 46311.9 46271.6 46227.7 46207.6 46187.4 46166.9 46145.8 46124.7 46099.3 46072.6 46035.5 45993.2 45951.7 45954.1 45956.2 45955.5 45954.7 45953.8 45942.5 45930.8 45918.6 45903.6 45888.4 45898.2 45907.3 45911.8 45915.8 45919.5 45918.7 45917.8 45917 45915.9 45914.9 45928.4 45942 45954.7 45965.4 45975.7 45986 45996.2 46006.1 46015.8 46025.5 46037.1 46048.5 46059.7 46070.8 46081.7 46100.1 46118.6 46137 46155.5 46174.2 46182.7 46191.3 46200 46209.1 46218.2 46240.9 46263.6 46287 46310.9 46334.7 46342.1 46349.5 46357.2 46365.5 46373.7 46397 46420.3 46444.4 46469.7 46494.4 46503.4 46512.3 46522 46532.2 46542.5 46562.1 46581.9 46602.3 46624.2 46645.4 46659.3 46673.3 46688.9 46705.2 46722 46733.5 46745.1 46756.8 46769.4 46781.8 46803.8 46825.9 46851.4 46877.6 46903.5 46904.6 46905.7 46907.1 46908.5 46909.9 46931.1 46952.5 46974.2 46998.1 47020.5 47030 47039.6 47050.6 47061.7 47073.2 47082.8 47092.6 47102.3 47112.8 47122.9 47140.1 47157.4 47176.4 47196.3 47215.6 47218.2 47220.8 47223.8 47226.7 47229.7 47244 47258.5 47273 47288.6 47303.5 47317.3 47331.5 47347 47362.6 47379.4 47379.5 47379.6 47379.7 47379.7 47379.8 47394.4 47409.2 47424 47439.9 47455.1 47467.2 47479.7 47493.3 47507 47520.2 47520.8 47521.4 47522.1 47522.8 47523.5 47535.3 47547.1 47559 47571.6 47584.1 47594.4 47604.7 47616.4 47628.6 47640.6 47644.6 47649 47653.7 47658.3 47663.2 47669.1 47674.9 47680.8 47687 47693.4 47702.2 47711.3 47721 47731.9 47742.3 47750 47758.1 47767 47775.9 47785.1 47787.2 47789.6 47792.2 47794.7 47797.4 47802.7 47808.1 47813.5 47819 47825 47831.2 47837.8 47844.7 47852.8 47860.6 47865.7 47870.7 47877 47883.6 47890.4 47894 47898.6 47903.3 47908 47913.2 47913.5 47913.7 47914 47914.2 47914.5 47918.6 47922.8 47926.9 47931 47936.1 47938.4 47941 47944 47947.8 47951.7 47952.9 47954 47955.9 47958.7 47961.4 47961.3 47961.8 47962.7 47963.5 47965 47964.1 47963.9 47963.6 47963.3 47962.9 47962.9 47962.9 47962.9 47962.8 47962.9 47961.5 47960.2 47958.8 47957.4 47956.7 47953.5 47950.9 47948.4 47946.1 47944.3 47939.9 47935.6 47931.9 47928.9 47925.8 47920.3 47914.8 47909.8 47905.6 47901.3 47894.7 47888.1 47882 47876.3 47870.8 47863.1 47855.7 47848.5 47841.2 47834.6 47825.8 47817.5 47809.1 47800.7 47792.6 47784 47775.6 47767.1 47758.7 47748.8 47748.1 47747.3 47746.6 47745.9 47745.1 47734.7 47724.3 47713.8 47703.3 47693 47681.3 47669.8 47658.3 47646.8 47635.5 47622.5 47610 47597.5 47585 47572.8 47558.8 47545.2 47531.7 47518.3 47505 47490.2 47475.5 47461.1 47446.8 47432.5 47416.8 47401.1 47385.8 47370.6 47355.4 47338.9 47322.3 47306 47290 47273.9 47256.6 47239.2 47222 47205.1 47188.2 47170.1 47152 47133.9 47116.2 47098.5 47079.7 47060.9 47042 47023.5 47005 46985.5 46966 46946.5 46927.2 46907.9 46887.8 46867.7 46847.4 46827.4 46807.5 46786.8 46766 46745.1 46724.4 46703.8 46682.5 46661.1 46639.7 46618.3 46597.1 46575.3 46553.3 46531.3 46509.4 46487.6 46465.3 46442.8 46420.2 46397.7 46375.4 46352.6 46329.6 46306.5 46283.5 46260.7 46237.4 46213.9 46190.4 46166.9 46143.6 46119.8 46095.9 46072 46048.1 46024.3 46000.1 45975.8 45951.5 45927.2 45902.9 45878.3 45853.6 45828.9 45804.2 45779.6 45754.6 45729.6 45704.5 45679.5 45654.5 45629.1 45603.7 45578.3 45552.9 45527.6 45501.9 45476.2 45450.5 45424.8 45399.1 45373.1 45347.1 45321.1 45295.1 45269.1 45242.9 45216.6 45190.3 45164 45137.7 45111.2 45084.6 45058 45031.5 45004.9 44978.1 44951.3 44924.5 44897.7 44870.9 44843.8 44816.8 44789.7 44762.7 44735.6 44708.4 44681.1 44653.8 44626.5 44599.2 44571.7 44544.2 44516.7 44489.2 44461.7 44434 44406.3 44378.6 44350.9 44323.2 44295.3 44267.4 44239.5 44211.6 44183.6 44155.6 44127.5 44099.4 44071.2 44043.1 44014.9 43986.6 43958.3 43930 43901.7 43873.2 43844.8 43816.3 43787.8 43759.3 43730.7 43702 43673.4 43644.7 43616 43587.2 43558.4 43529.6 43500.7 43471.9 43442.9 43413.9 43384.9 43355.9 43326.9 43297.7 43268.6 43239.4 43210.2 43181 43151.7 43122.3 43093 43063.6 43034.3 43004.8 42975.3 42945.8 42916.2 42886.7 42857 42827.3 42797.7 42768 42738.3 42708.4 42678.6 42648.7 42618.8 42589 42559 42528.9 42498.9 42468.8 42438.8 42408.6 42378.4 42348.2 42318 42287.7 42257.4 42227 42196.6 42166.2 42135.8 42105.3 42074.7 42044.1 42013.6 41983 41952.3 41921.5 41890.8 41860 41829.2 41798.3 41767.4 41736.5 41705.5 41674.6 41643.5 41612.4 41581.2 41550.1 41519 41487.7 41456.4 41425.1 41393.7 41362.4 41330.9 41299.4 41267.9 41236.4 41204.8 41173.2 41141.5 41109.8 41078.1 41046.3 41014.4 40982.5 40950.6 40918.7 40886.8 40854.7 40822.6 40790.4 40758.3 40726.2 40693.9 40661.6 40629.2 40596.9 40564.5 40532 40499.5 40466.9 40434.4 40401.8 40369.1 40336.3 40303.6 40270.8 40238 40205.1 40172.1 40139.1 40106.1 40073.1 40039.9 40006.7 39973.5 39940.3 39907 39873.6 39840.2 39806.8 39773.3 39739.8 39706.2 39672.5 39638.9 39605.2 39571.4 39537.6 39503.7 39469.8 39435.9 39401.9 39367.8 39333.6 39299.5 39265.3 39231.1 39196.8 39162.4 39128 39093.6 39059.1 39024.5 38989.9 38955.2 38920.6 38885.8 38851 38816.1 38781.2 38746.3 38711.3 38676.3 38641.1 38605.9 38570.8 38535.5 38500.2 38464.8 38429.4 38393.9 38358.4 38322.8 38287.2 38251.5 38215.8 38180 38144.2 38108.2 38072.3 38036.3 38000.3 37964.1 37927.9 37891.7 37855.5 37819.2 37782.8 37746.3 37709.8 37673.3 37636.7 37600 37563.3 37526.5 37489.7 37452.9 37415.9 37378.9 37341.8 37304.8 37267.6 37230.4 37193.1 37155.7 37118.4 37081 37043.4 37005.9 36968.2 36930.6 36892.9 36855.1 36817.2 36779.3 36741.4 36703.4 36665.3 36627.1 36588.9 36550.7 36512.4 36474 36435.5 36397 36358.5 36320 36281.2 36242.5 36203.7 36164.9 36126 36087 36048 36008.9 35969.7 35930.6 35891.3 35851.9 35812.5 35773.1 35733.6 35694 35654.4 35614.7 35574.9 35535.2 35495.2 35455.3 35415.3 35375.2 35335.2 35294.9 35254.7 35214.4 35174 35133.6 35093.1 35052.5 35011.9 34971.2 34930.5 34889.6 34848.7 34807.8 34766.8 34725.8 34684.6 34643.4 34602.1 34560.8 34519.5 34478 34436.4 34394.9 34353.2 34311.6 34269.7 34227.9 34186 34144 34102.1 34059.9 34017.7 33975.5 33933.2 33890.9 33848.4 33805.9 33763.4 33720.8 33678.1 33635.3 33592.5 33549.6 33506.6 33463.7 33420.5 33377.4 33334.1 33290.9 33247.5 33204.1 33160.6 33117 33073.4 33029.7 32985.9 32942.1 32898.2 32854.2 32810.3 32766.1 32721.9 32677.7 32633.4 32589 32544.5 32500 32455.4 32410.8 32366.1 32321.3 32276.4 32231.5 32186.5 32141.5 32096.3 32051.1 32005.8 31960.4 31915 31869.5 31823.9 31778.3 31732.6 31686.9 31641 31595 31549.1 31503 31456.9 31410.6 31364.4 31318 31271.6 31225.2 31178.5 31131.9 31085.2 31038.4 30991.6 30944.6 30897.6 30850.6 30803.4 30756.3 30708.9 30661.5 30614.1 30566.6 30519.1 30471.3 30423.6 30375.8 30327.9 30280 30231.9 30183.8 30135.6 30087.3 30039.1 29990.6 29942.1 29893.6 29844.9 29796.3 29747.4 29698.6 29649.6 29600.6 29551.6 29502.3 29453.1 29403.8 29354.4 29305 29255.3 29205.7 29156 29106.2 29056.4 29006.4 28956.4 28906.3 28856.1 28805.9 28755.5 28705.1 28654.6 28604 28553.4 28502.6 28451.8 28400.9 28349.9 28299 28247.7 28196.5 28145.2 28093.8 28042.5 27990.8 27939.2 27887.5 27835.7 27783.9 27731.9 27679.8 27627.7 27575.5 27523.3 27470.9 27418.4 27365.9 27313.3 27260.7 27207.8 27154.9 27101.9 27048.9 26995.9 26942.6 26889.3 26835.9 26782.4 26729 26675.2 26621.5 26567.7 26513.8 26459.9 26405.8 26351.6 26297.4 26243.1 26188.8 26134.3 26079.7 26025.1 25970.4 25915.7 25860.7 25805.7 25750.7 25695.7 25640.6 25585.2 25529.9 25474.6 25419.2 25363.8 25308.1 25252.5 25196.9 25141.2 25085.6 25029.7 24973.9 24918.2 24862.5 24806.7 24750.8 24695 24639.3 24583.7 24528 24472.3 24417 24361.9 24306.8 24252.1 24197.4 24142.5 24087.5 24032.5 23977.1 23922.4 23873.7 23825.1 23776.5 23732.7 23683.5 23618.2 23552.7 23487.2 23412.7 23361.5 23331.1 23301.1 23271.3 23257.1 23252.9 23248.8 23244.6 23240.4 23238.9 23236.3 23231 23225.8 23220.5 23214.8 23187.8 23160.6 23133.2 23105.5 23061.9 22986 22917 22848.1 22779.2 22722.9 22671.8 22615.5 22559.1 22502.8 22440.1 22372.3 22304.3 22236.2 22168 22099.6 22028.3 21955.1 21881.8 21808.6 21733.2 21655 21575.2 21495.4 21415.6 21334.2 21249.9 21163.8 21077.6 20991.5 20903.5 20812.5 20719.6 20626.6 20533.6 20438.8 20340.7 20240.5 20140.2 20039.8 19937.5 19831.6 19723.4 19615.1 19506.7 19396.2 19281.9 19164.8 19047.6 18930.3 18810.5 18686.5 18559.7 18432.8 18305.8 18176.4 18042.3 17904.4 17766.2 17627.9 17486 17339 17189.4 17039.5 16889.5 16737.3 16579.5 16414.9 16250 16084.8 15913.3 15735.6 15557.4 15379.3 15201.1 15023 14838.4 14638.9 14438.5 14237.4 14022.2 13799 13585.9 13373.4 13161.5 12960.1 12751.2 12503.7 12254 12002.1 11712.8 11412.6 11157.3 10904.8 10655 10450.3 10237.7 9921.73 9598.15 9265.99 8833.31 8384.32 8071.57 7773.95 7494.37 7349.26 7198.23 6801.75 6357.29 5839.05 5089.68 4311.4 3779.23 3398.31 3250.96 3316.68 3382.99 3362.04 2777.15 1388.16 0