# vtk DataFile Version 2.0
track0
ASCII
DATASET POLYDATA
POINTS 12278 float
-0.0205 0.001 1e-05
-0.02052 0.000999216 1e-05
-0.02054 0.000998592 1e-05
-0.02056 0.000998126 1e-05
-0.02058 0.000997818 1e-05
-0.0206 0.000997665 1e-05
-0.0205 0.00367778 1e-05
-0.02052 0.00367703 1e-05
-0.02054 0.00367643 1e-05
-0.02056 0.00367599 1e-05
-0.02058 0.00367569 1e-05
-0.0206 0.00367554 1e-05
-0.0205 0.00635556 1e-05
-0.02052 0.00635527 1e-05
-0.02054 0.00635505 1e-05
-0.02056 0.00635488 1e-05
-0.02058 0.00635476 1e-05
-0.0206 0.00635471 1e-05
-0.0205 0.00903333 1e-05
-0.02052 0.00903311 1e-05
-0.02054 0.00903293 1e-05
-0.02056 0.0090328 1e-05
-0.02058 0.00903271 1e-05
-0.0206 0.00903266 1e-05
-0.0205 0.0117111 1e-05
-0.02052 0.0117111 1e-05
-0.02054 0.011711 1e-05
-0.02056 0.011711 1e-05
-0.02058 0.011711 1e-05
-0.0206 0.011711 1e-05
-0.0205 0.0143889 1e-05
-0.02052 0.014389 1e-05
-0.02054 0.014389 1e-05
-0.02056 0.0143891 1e-05
-0.02058 0.0143891 1e-05
-0.0206 0.0143891 1e-05
-0.0205 0.0170667 1e-05
-0.02052 0.017067 1e-05
-0.02054 0.0170672 1e-05
-0.02056 0.0170674 1e-05
-0.02058 0.0170675 1e-05
-0.0206 0.0170676 1e-05
-0.0205 0.0197444 1e-05
-0.02052 0.019745 1e-05
-0.02054 0.0197454 1e-05
-0.02056 0.0197457 1e-05
-0.02058 0.0197459 1e-05
-0.0206 0.019746 1e-05
-0.0205 0.0224222 1e-05
-0.02052 0.022423 1e-05
-0.02054 0.0224236 1e-05
-0.02056 0.0224241 1e-05
-0.02058 0.0224244 1e-05
-0.0206 0.0224245 1e-05
-0.0205 0.0251 1e-05
-0.02052 0.0251003 1e-05
-0.02054 0.0251005 1e-05
-0.02056 0.0251007 1e-05
-0.02058 0.0251008 1e-05
-0.0206 0.0251008 1e-05
-0.0205 0.001 1e-05
-0.0203632 0.00100536 1e-05
-0.0202266 0.00101331 1e-05
-0.0200901 0.00102296 1e-05
-0.0200427 0.00102682 1e-05
-0.0198376 0.00104418 1e-05
-0.0196338 0.00107322 1e-05
-0.0194327 0.00111734 1e-05
-0.0192368 0.00118024 1e-05
-0.0190172 0.00124951 1e-05
-0.0189002 0.00128348 1e-05
-0.0187827 0.00131598 1e-05
-0.0186649 0.001347 1e-05
-0.0185469 0.001377 1e-05
-0.0183807 0.00141936 1e-05
-0.0182041 0.00146458 1e-05
-0.0180267 0.00150692 1e-05
-0.0178487 0.0015464 1e-05
-0.0176703 0.00158389 1e-05
-0.0174976 0.00161991 1e-05
-0.0172846 0.00166394 1e-05
-0.0170715 0.00170741 1e-05
-0.0168583 0.00175029 1e-05
-0.0166449 0.00179219 1e-05
-0.0163945 0.00184007 1e-05
-0.0163234 0.00185324 1e-05
-0.0162522 0.00186629 1e-05
-0.016181 0.00187921 1e-05
-0.0161097 0.00189201 1e-05
-0.0160387 0.0019046 1e-05
-0.0157586 0.0019535 1e-05
-0.0154779 0.00199931 1e-05
-0.0151968 0.00204225 1e-05
-0.0149154 0.00208283 1e-05
-0.0146381 0.00212134 1e-05
-0.0143838 0.00215527 1e-05
-0.0141293 0.00218766 1e-05
-0.0138747 0.00221855 1e-05
-0.0136198 0.00224797 1e-05
-0.0132934 0.00228369 1e-05
-0.0132791 0.00228515 1e-05
-0.0132648 0.0022866 1e-05
-0.0132504 0.00228805 1e-05
-0.0132361 0.0022895 1e-05
-0.0132214 0.00229098 1e-05
-0.0129776 0.00231543 1e-05
-0.0127337 0.00233865 1e-05
-0.0124897 0.00236061 1e-05
-0.0122456 0.00238129 1e-05
-0.0120025 0.00240058 1e-05
-0.0117547 0.00241909 1e-05
-0.0115067 0.00243627 1e-05
-0.0112587 0.00245231 1e-05
-0.0110106 0.00246734 1e-05
-0.0107632 0.00248136 1e-05
-0.0105252 0.00249391 1e-05
-0.0102872 0.00250547 1e-05
-0.0100491 0.00251602 1e-05
-0.00981105 0.00252575 1e-05
-0.00957337 0.00253471 1e-05
-0.00934491 0.00254261 1e-05
-0.00911643 0.00254974 1e-05
-0.00888792 0.0025561 1e-05
-0.0086594 0.00256171 1e-05
-0.00843108 0.00256668 1e-05
-0.00821175 0.00257085 1e-05
-0.00799241 0.00257439 1e-05
-0.00777306 0.00257731 1e-05
-0.0075537 0.00257952 1e-05
-0.00733443 0.00258114 1e-05
-0.00712387 0.00258213 1e-05
-0.0069133 0.00258256 1e-05
-0.00670273 0.00258243 1e-05
-0.00649216 0.00258162 1e-05
-0.0062816 0.00258018 1e-05
-0.00607944 0.00257819 1e-05
-0.0058773 0.00257565 1e-05
-0.00567516 0.00257257 1e-05
-0.00547303 0.00256874 1e-05
-0.00527083 0.00256419 1e-05
-0.00507675 0.00255912 1e-05
-0.00488269 0.00255343 1e-05
-0.00468865 0.00254711 1e-05
-0.00449464 0.00253997 1e-05
-0.00430044 0.00253191 1e-05
-0.00411412 0.00252329 1e-05
-0.00392784 0.00251388 1e-05
-0.00374159 0.00250369 1e-05
-0.0035554 0.00249255 1e-05
-0.00336883 0.00248016 1e-05
-0.00318995 0.00246712 1e-05
-0.00301115 0.002453 1e-05
-0.00283245 0.00243775 1e-05
-0.00265386 0.00242121 1e-05
-0.00247443 0.00240314 1e-05
-0.0023027 0.00238426 1e-05
-0.00213114 0.00236384 1e-05
-0.00195982 0.00234154 1e-05
-0.00178875 0.00231738 1e-05
-0.00161577 0.00229106 1e-05
-0.00161567 0.00229104 1e-05
-0.00161558 0.00229103 1e-05
-0.00161548 0.00229101 1e-05
-0.00161538 0.00229099 1e-05
-0.00161528 0.00229098 1e-05
-0.00145051 0.00226407 1e-05
-0.00128614 0.00223481 1e-05
-0.00112219 0.00220326 1e-05
-0.000958693 0.00216947 1e-05
-0.000791418 0.00213237 1e-05
-0.000633135 0.00209425 1e-05
-0.000475556 0.00205333 1e-05
-0.000318719 0.00200964 1e-05
-0.000162835 0.00196267 1e-05
0 0.00190952 1e-05
3.73404e-05 0.00189632 1e-05
7.45807e-05 0.00188284 1e-05
0.000111722 0.00186909 1e-05
0.000148767 0.00185508 1e-05
0.000179077 0.00184338 1e-05
0.000248939 0.00181594 1e-05
0.00031839 0.00178748 1e-05
0.000387416 0.001758 1e-05
0.000456002 0.00172751 1e-05
0.000528387 0.00169413 1e-05
0.000634886 0.00164315 1e-05
0.000740278 0.00158992 1e-05
0.00084451 0.00153445 1e-05
0.00094762 0.00147693 1e-05
0.00101987 0.00143468 1e-05
0.00102808 0.00142973 1e-05
0.00103627 0.00142476 1e-05
0.00104445 0.00141977 1e-05
0.00105262 0.00141477 1e-05
0.00106088 0.00140969 1e-05
0.00116821 0.00134351 1e-05
0.00127404 0.00127495 1e-05
0.00137827 0.00120399 1e-05
0.00148099 0.00113086 1e-05
0.00159667 0.00104511 1e-05
0.00159684 0.00104498 1e-05
0.00159701 0.00104485 1e-05
0.00159718 0.00104471 1e-05
0.00159735 0.00104458 1e-05
0.00159752 0.00104445 1e-05
0.00169218 0.000970886 1e-05
0.00178544 0.000895554 1e-05
0.00187721 0.000818423 1e-05
0.00196757 0.000739639 1e-05
0.00203796 0.000676367 1e-05
0.00205804 0.00065787 1e-05
0.00207803 0.000639285 1e-05
0.00209793 0.000620609 1e-05
0.00211778 0.000601871 1e-05
0.00213833 0.000582349 1e-05
0.00219145 0.000531538 1e-05
0.00224408 0.00048021 1e-05
0.00229619 0.000428358 1e-05
0.00234777 0.000375975 1e-05
0.00239406 0.000328255 1e-05
0.00245192 0.000267785 1e-05
0.00250914 0.000206715 1e-05
0.00256573 0.000145061 1e-05
0.00262181 8.29417e-05 1e-05
0.00268334 1.36068e-05 1e-05
0.00268571 1.08854e-05 1e-05
0.00268807 8.16305e-06 1e-05
0.00269044 5.43968e-06 1e-05
0.0026928 2.71531e-06 1e-05
0.00269516 0 1e-05
0.00275905 -7.37367e-05 1e-05
0.00282233 -0.000148005 1e-05
0.00288497 -0.000222813 1e-05
0.00294695 -0.000298173 1e-05
0.00300402 -0.000368654 1e-05
0.00304973 -0.000425945 1e-05
0.00309514 -0.000483482 1e-05
0.00314023 -0.000541261 1e-05
0.00318508 -0.000599236 1e-05
0.00323259 -0.000661225 1e-05
0.00325063 -0.000684999 1e-05
0.00326861 -0.000708812 1e-05
0.00328654 -0.000732665 1e-05
0.00330442 -0.000756559 1e-05
0.00332196 -0.000780089 1e-05
0.0033901 -0.000871877 1e-05
0.00345764 -0.000964107 1e-05
0.00352456 -0.00105679 1e-05
0.00359094 -0.00114986 1e-05
0.0036538 -0.00123896 1e-05
0.00368026 -0.00127686 1e-05
0.00370665 -0.00131482 1e-05
0.00373296 -0.00135283 1e-05
0.00375922 -0.00139087 1e-05
0.00378611 -0.00142995 1e-05
0.00383008 -0.00149405 1e-05
0.00387384 -0.0015583 1e-05
0.00391738 -0.0016227 1e-05
0.00396069 -0.00168726 1e-05
0.00400284 -0.00175044 1e-05
0.00407106 -0.00185328 1e-05
0.00413886 -0.0019564 1e-05
0.00420623 -0.0020598 1e-05
0.00427332 -0.00216339 1e-05
0.00434393 -0.00227308 1e-05
0.00434997 -0.00228252 1e-05
0.004356 -0.00229197 1e-05
0.00436204 -0.00230142 1e-05
0.00436806 -0.00231087 1e-05
0.00437407 -0.0023203 1e-05
0.00445492 -0.00244725 1e-05
0.00453532 -0.00257449 1e-05
0.00461532 -0.00270197 1e-05
0.00469496 -0.00282968 1e-05
0.00477284 -0.00295498 1e-05
0.00479949 -0.00299801 1e-05
0.00482611 -0.00304105 1e-05
0.00485271 -0.00308412 1e-05
0.0048793 -0.00312719 1e-05
0.00490609 -0.00317058 1e-05
0.00496672 -0.00326879 1e-05
0.0050272 -0.00336709 1e-05
0.00508753 -0.00346549 1e-05
0.00514772 -0.00356396 1e-05
0.00520737 -0.00366161 1e-05
0.00526042 -0.00374852 1e-05
0.00531343 -0.00383546 1e-05
0.0053664 -0.00392243 1e-05
0.00541939 -0.00400938 1e-05
0.00547262 -0.00409659 1e-05
0.00551559 -0.00416689 1e-05
0.00555853 -0.00423722 1e-05
0.00560143 -0.00430757 1e-05
0.00564432 -0.00437792 1e-05
0.00568714 -0.00444811 1e-05
0.00575842 -0.00456486 1e-05
0.00582975 -0.00468158 1e-05
0.00590113 -0.00479827 1e-05
0.00597264 -0.00491488 1e-05
0.00604356 -0.00503006 1e-05
0.00607981 -0.0050887 1e-05
0.00611607 -0.00514733 1e-05
0.00615234 -0.00520596 1e-05
0.00618863 -0.00526458 1e-05
0.00622503 -0.00532326 1e-05
0.00630381 -0.00545003 1e-05
0.00638278 -0.00557668 1e-05
0.00646195 -0.00570321 1e-05
0.00654139 -0.00582956 1e-05
0.00661893 -0.0059521 1e-05
0.00666283 -0.00602102 1e-05
0.00670678 -0.00608991 1e-05
0.00675078 -0.00615876 1e-05
0.00679487 -0.00622756 1e-05
0.00683934 -0.00629671 1e-05
0.00691123 -0.00640812 1e-05
0.00698337 -0.00651937 1e-05
0.00705577 -0.00663045 1e-05
0.00712846 -0.00674133 1e-05
0.00719878 -0.0068478 1e-05
0.00726947 -0.00695405 1e-05
0.00734038 -0.00706015 1e-05
0.00741151 -0.0071661 1e-05
0.00748295 -0.00727184 1e-05
0.00755593 -0.00737909 1e-05
0.00760137 -0.0074454 1e-05
0.00764694 -0.00751162 1e-05
0.00769263 -0.00757775 1e-05
0.00773846 -0.00764379 1e-05
0.00778313 -0.00770782 1e-05
0.00790091 -0.00787579 1e-05
0.00801946 -0.00804323 1e-05
0.00813878 -0.0082101 1e-05
0.0082591 -0.00837626 1e-05
0.00837203 -0.00853017 1e-05
0.00837973 -0.00854052 1e-05
0.00838742 -0.00855086 1e-05
0.00839512 -0.0085612 1e-05
0.00840283 -0.00857153 1e-05
0.00841055 -0.00858189 1e-05
0.00852155 -0.00873055 1e-05
0.00863336 -0.00887859 1e-05
0.00874602 -0.00902599 1e-05
0.00885954 -0.00917272 1e-05
0.00896551 -0.00930783 1e-05
0.00903011 -0.00938913 1e-05
0.00909497 -0.00947022 1e-05
0.00916009 -0.00955109 1e-05
0.00922552 -0.00963172 1e-05
0.00929312 -0.00971438 1e-05
0.00934721 -0.00978001 1e-05
0.00940151 -0.00984547 1e-05
0.00945599 -0.00991077 1e-05
0.00951068 -0.0099759 1e-05
0.0095636 -0.0100385 1e-05
[...]
POINT_DATA 12278
 FIELD attributes 1
U 3 12278 float
9.72339 	0.381311 	0 9.77871 	0.305049 	0 9.83405 	0.228765 	0 9.8894 	0.152465 	0 9.94476 	0.0761532 	0 10 	0 	0
10.0671 	0.375483 	0 10.0537 	0.300387 	0 10.0403 	0.225271 	0 10.0268 	0.150141 	0 10.0134 	0.0750008 	0 10 	0 	0
10.0364 	0.141572 	0 10.0291 	0.113304 	0 10.0218 	0.085089 	0 10.0145 	0.0569263 	0 10.0071 	0.0288164 	0 10 	0 	0
10.0137 	0.111519 	0 10.011 	0.0892151 	0 10.0082 	0.0669108 	0 10.0055 	0.0446061 	0 10.0027 	0.0223012 	0 10 	0 	0
10.0097 	0.0196534 	0 10.0078 	0.0157227 	0 10.0058 	0.011792 	0 10.0039 	0.00786134 	0 10.0019 	0.00393066 	0 10 	0 	0
10.0102 	-0.0372875 	0 10.0082 	-0.02983 	0 10.0061 	-0.0223725 	0 10.0041 	-0.014915 	0 10.002 	-0.00745741 	0 10 	0 	0
10.0174 	-0.148997 	0 10.0139 	-0.119197 	0 10.0105 	-0.0893967 	0 10.007 	-0.0595953 	0 10.0035 	-0.0297933 	0 10 	0 	0
10.0362 	-0.265901 	0 10.029 	-0.212721 	0 10.0217 	-0.159534 	0 10.0145 	-0.106342 	0 10.0072 	-0.053146 	0 10 	0 	0
10.0563 	-0.387167 	0 10.045 	-0.309734 	0 10.0338 	-0.23228 	0 10.0225 	-0.15481 	0 10.0112 	-0.0773282 	0 10 	0 	0
8.30133 	-0.114495 	0 8.4287 	-0.091596 	0 8.55659 	-0.0686962 	0 8.68498 	-0.0457957 	0 8.81385 	-0.0228949 	0 8.94315 	0 	0
9.72339 	0.381311 	0 9.5415 	0.555241 	0 9.39671 	0.663651 	0 9.26203 	0.754271 	0 9.2183 	0.780385 	0 8.95344 	1.27614 	0 8.70578 	1.91036 	0 8.48173 	2.72184 	0 8.46724 	2.67123 	0 8.47252 	2.45986 	0 8.50117 	2.35314 	0 8.52498 	2.2443 	0 8.51221 	2.16311 	0 8.42487 	2.14738 	0 8.30214 	2.12559 	0 8.30117 	1.9821 	0 8.28715 	1.83798 	0 8.21181 	1.72569 	0 8.035 	1.67507 	0 7.86306 	1.62575 	0 7.68323 	1.56759 	0 7.50177 	1.50875 	0 7.42793 	1.45839 	0 7.36148 	1.40771 	0 7.27865 	1.34671 	0 7.22249 	1.32376 	0 7.16614 	1.3007 	0 7.10958 	1.27753 	0 7.07928 	1.2544 	0 7.05291 	1.23121 	0 6.97394 	1.13838 	0 6.88841 	1.05226 	0 6.79883 	0.980329 	0 6.71191 	0.932082 	0 6.6228 	0.883658 	0 6.55089 	0.833774 	0 6.49229 	0.787587 	0 6.44246 	0.743855 	0 6.3887 	0.69909 	0 6.31694 	0.642265 	0 6.31477 	0.64017 	0 6.3132 	0.638346 	0 6.31172 	0.636559 	0 6.31023 	0.63477 	0 6.30868 	0.632931 	0 6.27132 	0.597061 	0 6.23151 	0.560863 	0 6.18922 	0.524331 	0 6.1444 	0.487462 	0 6.10943 	0.456252 	0 6.07602 	0.420969 	0 6.04571 	0.390994 	0 6.01701 	0.36455 	0 5.99443 	0.3396 	0 5.97316 	0.315195 	0 5.95246 	0.289062 	0 5.92972 	0.262718 	0 5.91348 	0.241657 	0 5.9034 	0.222653 	0 5.89182 	0.203586 	0 5.87917 	0.183519 	0 5.86498 	0.163352 	0 5.85627 	0.143788 	0 5.85337 	0.127399 	0 5.84919 	0.110984 	0 5.84297 	0.0943486 	0 5.8355 	0.0776722 	0 5.83341 	0.0589698 	0 5.83631 	0.0430958 	0 5.838 	0.0272222 	0 5.83717 	0.0119244 	0 5.83535 	-0.00344237 	0 5.83921 	-0.0225439 	0 5.84732 	-0.0400355 	0 5.85425 	-0.0574731 	0 5.85861 	-0.0735402 	0 5.86185 	-0.0895813 	0 5.87121 	-0.110969 	0 5.88468 	-0.132508 	0 5.89665 	-0.153974 	0 5.9065 	-0.173341 	0 5.91507 	-0.192638 	0 5.9294 	-0.218098 	0 5.94828 	-0.247054 	0 5.96527 	-0.27587 	0 5.98121 	-0.302102 	0 5.99551 	-0.328185 	0 6.01455 	-0.3598 	0 6.03865 	-0.400964 	0 6.06025 	-0.441885 	0 6.08259 	-0.480349 	0 6.10479 	-0.520972 	0 6.1301 	-0.567629 	0 6.15458 	-0.619701 	0 6.17871 	-0.679512 	0 6.20609 	-0.738507 	0 6.23743 	-0.811899 	0 6.26491 	-0.884755 	0 6.28855 	-0.957073 	0 6.30867 	-1.02978 	0 6.30868 	-1.02983 	0 6.3087 	-1.0299 	0 6.30872 	-1.02997 	0 6.30873 	-1.03003 	0 6.30875 	-1.0301 	0 6.33254 	-1.12728 	0 6.35108 	-1.22235 	0 6.36449 	-1.31536 	0 6.37525 	-1.41405 	0 6.38853 	-1.53824 	0 6.40633 	-1.66398 	0 6.41788 	-1.78764 	0 6.40576 	-1.93015 	2.62064e-20 6.36939 	-2.07911 	5.37231e-20 6.31924 	-2.23389 	8.12253e-20 6.31103 	-2.28434 	2.33731e-20 6.29885 	-2.33168 	5.82341e-21 6.28248 	-2.3757 	3.12539e-20 6.26556 	-2.41947 	5.73048e-20 6.25122 	-2.45516 	7.91838e-20 6.22483 	-2.55101 	1.78949e-19 6.19649 	-2.6463 	2.82875e-19 6.16621 	-2.74101 	3.90935e-19 6.12006 	-2.82216 	2.7431e-19 6.06351 	-2.90249 	6.24834e-20 5.98355 	-3.02215 	4.92666e-20 5.89839 	-3.13885 	3.61826e-20 5.80152 	-3.23669 	8.56646e-21 5.70025 	-3.3326 	-1.805e-20 5.62533 	-3.39916 	-3.619e-20 5.61619 	-3.40846 	-3.59822e-20 5.60702 	-3.41775 	-3.57595e-20 5.59777 	-3.42639 	-3.69094e-20 5.58839 	-3.43334 	-4.17128e-20 5.57887 	-3.44036 	-4.6562e-20 5.45898 	-3.53657 	-2.82935e-20 5.33376 	-3.63081 	-9.4523e-21 5.20772 	-3.70777 	1.24201e-22 5.0815 	-3.76665 	-1.8967e-22 4.93249 	-3.83197 	7.31715e-23 4.93224 	-3.83211 	4.18724e-23 4.93199 	-3.83225 	1.05729e-23 4.93176 	-3.83234 	1.8561e-23 4.93154 	-3.83242 	4.65904e-23 4.93132 	-3.83249 	7.46286e-23 4.80561 	-3.88184 	1.12794e-21 4.6758 	-3.92958 	2.48569e-21 4.54888 	-3.96608 	4.21363e-21 4.43124 	-3.98317 	6.3388e-21 4.33592 	-3.99554 	8.20956e-21 4.30559 	-4.0032 	1.33553e-20 4.27504 	-4.01078 	1.8539e-20 4.24974 	-4.0125 	9.22036e-21 4.22457 	-4.01386 	-8.27644e-22 4.19828 	-4.01521 	-1.12455e-20 4.12446 	-4.02252 	-6.36218e-20 4.04947 	-4.02931 	-1.1563e-19 3.97344 	-4.03542 	-1.65823e-19 3.90927 	-4.02988 	-1.01575e-19 3.85046 	-4.0245 	-4.30502e-20 3.77289 	-4.02665 	4.17091e-21 3.69541 	-4.02591 	4.19875e-20 3.62353 	-4.01379 	3.41898e-20 3.55057 	-4.0012 	2.66628e-20 3.46853 	-3.98671 	1.86358e-20 3.46519 	-3.98629 	1.92621e-20 3.46185 	-3.98587 	1.98886e-20 3.4585 	-3.98545 	2.05152e-20 3.45534 	-3.98473 	2.1041e-20 3.45228 	-3.98389 	2.15254e-20 3.38414 	-3.97187 	1.41251e-20 3.31395 	-3.95771 	7.41689e-21 3.24255 	-3.94286 	7.03272e-22 3.17077 	-3.9158 	6.16932e-21 3.10313 	-3.88903 	1.23527e-20 3.06105 	-3.87902 	3.47244e-20 3.01865 	-3.86763 	5.0624e-20 2.97705 	-3.84866 	2.33619e-20 2.93505 	-3.82947 	-3.84319e-21 2.88985 	-3.80878 	-3.277e-20 2.87172 	-3.80222 	-3.88758e-20 2.85351 	-3.79562 	-4.49839e-20 2.83522 	-3.78896 	-5.10942e-20 2.81701 	-3.77989 	-5.72899e-20 2.79908 	-3.77037 	-6.34043e-20 2.74569 	-3.74931 	-1.0713e-19 2.69146 	-3.72776 	-1.50976e-19 2.63666 	-3.69711 	-1.46193e-19 2.58224 	-3.65973 	-8.81864e-20 2.52972 	-3.62363 	-3.27074e-20 2.51279 	-3.6147 	2.05737e-21 2.49582 	-3.60558 	3.522e-20 2.47996 	-3.59319 	2.99666e-20 2.46402 	-3.58075 	2.47484e-20 2.4476 	-3.56794 	1.94301e-20 2.41705 	-3.54885 	5.65484e-20 2.38626 	-3.52957 	9.35872e-20 2.3552 	-3.5101 	1.30544e-19 2.32521 	-3.48559 	1.03451e-19 2.2958 	-3.46114 	7.22982e-20 2.25887 	-3.43545 	4.24495e-20 2.22149 	-3.40944 	1.25686e-20 2.18693 	-3.37658 	-2.89707e-21 2.15212 	-3.34338 	-1.81015e-20 2.11499 	-3.30806 	-3.42053e-20 2.11128 	-3.3052 	-3.17804e-20 2.10757 	-3.30233 	-2.93584e-20 2.10385 	-3.29947 	-2.69392e-20 2.10035 	-3.29604 	-3.3994e-20 2.09686 	-3.29259 	-4.13458e-20 2.06014 	-3.26031 	-1.64616e-19 2.02441 	-3.22598 	-2.56605e-19 1.98936 	-3.18987 	-2.99655e-19 1.95713 	-3.14898 	-1.93319e-19 1.92536 	-3.10876 	-8.89849e-20 1.91676 	-3.09908 	-7.78951e-20 1.90814 	-3.08938 	-6.68011e-20 1.9008 	-3.07854 	-5.6531e-20 1.89377 	-3.06743 	-4.64515e-20 1.88668 	-3.05624 	-3.62963e-20 1.86475 	-3.03086 	-1.17559e-20 1.8427 	-3.00538 	1.28059e-20 1.82111 	-2.97922 	2.9983e-20 1.80208 	-2.95024 	1.21473e-20 1.78319 	-2.9215 	-5.52489e-21 1.7698 	-2.90253 	-2.11421e-20 1.75637 	-2.88355 	-3.67476e-20 1.74514 	-2.86326 	-1.81157e-20 1.73483 	-2.84246 	1.47141e-20 1.72454 	-2.82162 	4.76505e-20 1.71221 	-2.80443 	1.21455e-20 1.69986 	-2.78721 	-2.33092e-20 1.68814 	-2.76952 	-3.49287e-20 1.67806 	-2.75067 	1.29539e-20 1.66802 	-2.73187 	6.07052e-20 1.65469 	-2.70767 	1.97467e-19 1.64139 	-2.6835 	3.34167e-19 1.63047 	-2.65855 	2.96355e-19 1.62131 	-2.63312 	1.33609e-19 1.6124 	-2.60808 	-2.78289e-20 1.60459 	-2.59472 	-5.73822e-20 1.59679 	-2.58137 	-8.69434e-20 1.5898 	-2.56766 	-8.979e-20 1.58392 	-2.5535 	-5.62898e-20 1.57806 	-2.53935 	-2.2763e-20 1.56807 	-2.51483 	-2.46245e-20 1.55819 	-2.49041 	-2.65258e-20 1.55025 	-2.46587 	-1.9331e-20 1.54481 	-2.44117 	-5.00481e-22 1.53975 	-2.41736 	1.77492e-20 1.5331 	-2.40288 	2.97227e-20 1.52648 	-2.38842 	4.16916e-20 1.52117 	-2.37373 	4.57234e-20 1.51682 	-2.3589 	4.41002e-20 1.5125 	-2.34403 	4.24471e-20 1.50726 	-2.32429 	2.55686e-20 1.50215 	-2.30467 	8.66458e-21 1.49812 	-2.28526 	-3.13009e-21 1.49677 	-2.26621 	-1.11821e-21 1.49567 	-2.24805 	8.14526e-22 1.4887 	-2.22754 	7.62484e-20 1.48184 	-2.20712 	1.51909e-19 1.47757 	-2.18686 	1.25779e-19 1.47424 	-2.16676 	6.78024e-20 1.47102 	-2.14648 	8.99875e-21 1.46981 	-2.13593 	-2.33693e-20 1.46867 	-2.12544 	-5.56937e-20 1.46778 	-2.11512 	-8.20219e-20 1.46931 	-2.10623 	-3.64945e-20 1.47088 	-2.09766 	7.88481e-21 1.46375 	-2.06745 	4.60791e-21 1.45692 	-2.03751 	1.31323e-21 1.45615 	-2.01094 	-2.34647e-20 1.45672 	-1.98524 	-5.17415e-20 1.45932 	-1.96227 	-7.48793e-20 1.45885 	-1.96031 	-6.85509e-20 1.45838 	-1.95835 	-6.22765e-20 1.45833 	-1.9566 	-6.70137e-20 1.45828 	-1.95485 	-7.17485e-20 1.45824 	-1.9531 	-7.64937e-20 1.45636 	-1.92817 	-2.09542e-19 1.45485 	-1.90355 	-3.41856e-19 1.45408 	-1.8795 	-4.46619e-19 1.45833 	-1.85927 	-1.91202e-19 1.4627 	-1.84091 	4.70963e-20 1.46055 	-1.82601 	1.11165e-19 1.45852 	-1.8112 	1.7502e-19 1.45944 	-1.79852 	1.42323e-19 1.46048 	-1.78595 	1.09727e-19 1.46169 	-1.77312 	7.63117e-20 1.46261 	-1.76355 	6.73823e-20 1.46362 	-1.75405 	5.84748e-20 1.46471 	-1.74461 	4.95896e-20 1.46732 	-1.73643 	5.16632e-20 1.46999 	-1.72866 	5.41799e-20 1.46947 	-1.7054 	2.94895e-20 1.46931 	-1.68242 	4.73726e-21 1.47223 	-1.66186 	2.02448e-20 1.47683 	-1.6424 	4.53311e-20 1.48277 	-1.62529 	6.85621e-20 1.48275 	-1.62122 	6.7445e-20 1.48283 	-1.61723 	6.76087e-20 1.48342 	-1.61361 	7.51575e-20 1.48402 	-1.61001 	8.27043e-20 1.48465 	-1.60637 	9.03391e-20 1.48735 	-1.59063 	1.39731e-19 1.49033 	-1.57508 	1.89e-19 1.49357 	-1.55974 	2.38143e-19 1.49875 	-1.54624 	1.68536e-19 1.50416 	-1.53405 	8.22322e-20 1.50582 	-1.51457 	1.55574e-19 1.50832 	-1.49581 	2.03664e-19 1.51294 	-1.47899 	1.61822e-19 1.5179 	-1.46243 	1.20511e-19 1.52361 	-1.44494 	7.67373e-20 1.52363 	-1.44487 	7.64794e-20 1.52366 	-1.4448 	7.62216e-20 1.52368 	-1.44473 	7.59638e-20 1.52371 	-1.44467 	7.63065e-20 1.52375 	-1.44461 	7.69123e-20 1.52815 	-1.42758 	1.26626e-19 1.53295 	-1.41083 	1.7467e-19 1.53813 	-1.39434 	2.22322e-19 1.5449 	-1.37963 	1.84258e-19 1.552 	-1.36671 	1.1713e-19 1.55533 	-1.3491 	2.03158e-19 1.55955 	-1.33239 	2.39504e-19 1.56519 	-1.31724 	1.7476e-19 1.57117 	-1.30234 	1.10231e-19 1.57752 	-1.2888 	3.78368e-20 1.57775 	-1.28781 	3.75855e-20 1.57802 	-1.28686 	3.67568e-20 1.57834 	-1.28598 	3.51999e-20 1.57866 	-1.2851 	3.36427e-20 1.57899 	-1.28421 	3.20764e-20 1.58421 	-1.27026 	-1.34441e-20 1.58972 	-1.25651 	-5.88855e-20 1.59554 	-1.24296 	-1.04245e-19 1.60225 	-1.23061 	-8.93471e-20 1.60931 	-1.21988 	-3.00343e-20 1.61376 	-1.20436 	-7.54195e-20 1.61852 	-1.18905 	-1.21218e-19 1.6246 	-1.17567 	-1.03747e-19 1.63189 	-1.16301 	-6.09352e-20 1.63992 	-1.15163 	3.29764e-22 1.64221 	-1.1448 	2.87788e-20 1.64482 	-1.13848 	2.82677e-20 1.64768 	-1.13253 	7.11827e-21 1.6506 	-1.12661 	-1.39804e-20 1.65373 	-1.12044 	-3.60789e-20 1.65738 	-1.11361 	-6.80256e-20 1.66111 	-1.10683 	-9.98604e-20 1.66493 	-1.1001 	-1.31583e-19 1.66897 	-1.09381 	-1.3114e-19 1.67322 	-1.08833 	-7.98817e-20 1.67836 	-1.07459 	-1.11919e-19 1.68439 	-1.06133 	-1.36148e-19 1.69172 	-1.04893 	-1.45569e-19 1.69991 	-1.03832 	-1.3524e-19 1.708 	-1.02835 	-1.25252e-19 1.71377 	-1.01484 	-2.75553e-19 1.72004 	-1.00214 	-3.50205e-19 1.72692 	-0.990704 	-2.96134e-19 1.73407 	-0.979424 	-2.4257e-19 1.74237 	-0.969347 	-1.16078e-19 1.74447 	-0.965014 	-8.25864e-20 1.74671 	-0.961131 	-8.48002e-20 1.74902 	-0.957383 	-9.66542e-20 1.75136 	-0.953651 	-1.0846e-19 1.75382 	-0.949777 	-1.20724e-19 1.75869 	-0.942415 	-1.24336e-19 1.76368 	-0.935119 	-1.27921e-19 1.76878 	-0.927891 	-1.31478e-19 1.77403 	-0.920953 	-1.29666e-19 1.77937 	-0.915183 	-1.05258e-19 1.78542 	-0.903251 	-1.32869e-19 1.79247 	-0.891893 	-1.44804e-19 1.80041 	-0.88104 	-1.43576e-19 1.80873 	-0.871974 	-1.02963e-19 1.81701 	-0.863443 	-6.09373e-20 1.82362 	-0.851752 	-1.64897e-19 1.8305 	-0.840227 	-2.66883e-19 1.83766 	-0.830534 	-2.25569e-19 1.84588 	-0.821428 	-1.27944e-19 1.85456 	-0.812982 	4.41299e-23 1.86117 	-0.802433 	1.42344e-22 1.86794 	-0.793515 	1.07752e-22 1.87491 	-0.78474 	6.91434e-23 1.88206 	-0.776065 	3.01067e-23 1.89043 	-0.766303 	-1.48246e-23 1.89082 	-0.765881 	7.20422e-22 1.8912 	-0.765458 	1.45518e-21 1.89159 	-0.765036 	2.18945e-21 1.89197 	-0.764615 	2.92323e-21 1.89235 	-0.764276 	4.28932e-22 1.89983 	-0.754821 	-2.53235e-20 1.90762 	-0.745537 	-4.71924e-20 1.91563 	-0.736365 	-6.8883e-20 1.92387 	-0.727316 	-8.98792e-20 1.93177 	-0.720329 	-3.11949e-20 1.93866 	-0.710372 	-2.11244e-20 1.94623 	-0.700855 	-1.39188e-20 1.95461 	-0.691872 	-1.04056e-20 1.96278 	-0.684601 	-1.59808e-20 1.97092 	-0.677733 	-2.24459e-20 1.97824 	-0.668026 	5.39456e-20 1.98577 	-0.658421 	1.3045e-19 1.9932 	-0.650334 	1.32359e-19 2.00151 	-0.643388 	6.57224e-20 2.00985 	-0.636645 	1.63153e-22 2.01756 	-0.627192 	9.6999e-23 2.02509 	-0.618817 	-1.11902e-20 2.03252 	-0.611276 	-3.10358e-20 2.04012 	-0.603814 	-5.08577e-20 2.04859 	-0.597174 	-6.38932e-20 2.05549 	-0.589475 	-1.06433e-19 2.06201 	-0.58297 	-1.09986e-19 2.06867 	-0.576521 	-1.13599e-19 2.07547 	-0.570131 	-1.17271e-19 2.08343 	-0.562856 	-1.21555e-19 2.0842 	-0.562185 	-1.22749e-19 2.08497 	-0.561515 	-1.23941e-19 2.08574 	-0.560846 	-1.25133e-19 2.08651 	-0.560177 	-1.26325e-19 2.08721 	-0.559634 	-1.22285e-19 2.09467 	-0.552334 	-9.4317e-20 2.10237 	-0.545176 	-6.50738e-20 2.11024 	-0.538087 	-3.58684e-20 2.11828 	-0.531068 	-6.70116e-21 2.12555 	-0.525578 	1.79215e-22 2.1327 	-0.517812 	6.74862e-20 2.14053 	-0.51083 	8.64212e-20 2.14854 	-0.503938 	1.03559e-19 2.15619 	-0.497862 	8.43269e-20 2.16321 	-0.492943 	1.48995e-20 2.17059 	-0.485421 	-5.50403e-20 2.1782 	-0.478047 	-1.18764e-19 2.18627 	-0.471407 	-1.35e-19 2.19319 	-0.466542 	-6.72698e-20 2.20017 	-0.461761 	-7.24704e-23 2.20775 	-0.454481 	-3.95696e-23 2.21551 	-0.44726 	-6.84113e-24 2.22263 	-0.441396 	0 2.22947 	-0.436678 	0 2.23638 	-0.432035 	0 2.24413 	-0.424997 	0 2.2518 	-0.418279 	0 2.2583 	-0.413044 	0 2.265 	-0.408268 	-1.01449e-20 2.2718 	-0.403763 	-2.51668e-20 2.27969 	-0.396964 	-6.23127e-21 2.2866 	-0.391327 	-6.35423e-21 2.2931 	-0.386277 	-1.58201e-20 2.29972 	-0.381291 	-2.67356e-20 2.30639 	-0.376924 	-6.64773e-20 2.3141 	-0.370611 	-2.84794e-20 2.32045 	-0.36571 	-3.02687e-20 2.32692 	-0.360842 	-3.20299e-20 2.33351 	-0.356007 	-3.3763e-20 2.3401 	-0.35149 	-4.64683e-20 2.34634 	-0.34663 	-3.69161e-20 2.35195 	-0.342416 	-3.83662e-20 2.35765 	-0.338226 	-3.97948e-20 2.36344 	-0.334061 	-4.12021e-20 2.37029 	-0.329243 	-4.28148e-20 2.37081 	-0.328886 	-4.26959e-20 2.37134 	-0.328529 	-4.25772e-20 2.37186 	-0.328171 	-4.24587e-20 2.37239 	-0.327814 	-4.23403e-20 2.37285 	-0.327512 	-4.25187e-20 2.37901 	-0.322922 	-4.92207e-20 2.38527 	-0.318386 	-5.37696e-20 2.39165 	-0.313878 	-5.82415e-20 2.39813 	-0.309398 	-6.2637e-20 2.40377 	-0.30567 	-3.89649e-20 2.4101 	-0.300955 	-7.51705e-20 2.41626 	-0.296595 	-8.73035e-20 2.42253 	-0.29226 	-9.93777e-20 2.4289 	-0.28795 	-1.11393e-19 2.43354 	-0.284964 	-7.13033e-20 2.44011 	-0.280179 	-1.1859e-19 2.44615 	-0.275992 	-1.21116e-19 2.4523 	-0.271829 	-1.23596e-19 2.45819 	-0.267924 	-1.18999e-19 2.46216 	-0.26536 	-7.53447e-20 2.46877 	-0.260744 	-1.17873e-19 2.47494 	-0.256538 	-1.28019e-19 2.48094 	-0.252543 	-1.22414e-19 2.48588 	-0.249282 	-9.48005e-20 2.48961 	-0.246823 	-4.31993e-20 2.4962 	-0.24241 	4.31577e-20 2.50259 	-0.23819 	1.03866e-19 2.50843 	-0.23436 	1.09362e-19 2.51241 	-0.231672 	5.03697e-20 2.51589 	-0.229316 	-2.66957e-20 2.52243 	-0.225102 	-1.75924e-20 2.52908 	-0.220907 	-8.4989e-21 2.53459 	-0.217323 	8.66912e-21 2.53777 	-0.215056 	2.59574e-20 2.54101 	-0.212801 	4.32205e-20 2.54749 	-0.208783 	-4.33234e-20 2.55407 	-0.204781 	-1.2988e-19 2.55905 	-0.201559 	-1.41243e-19 2.56198 	-0.199393 	-7.10817e-20 2.56495 	-0.197237 	-1.0191e-21 2.57135 	-0.19341 	-1.05555e-22 2.57785 	-0.189597 	7.87195e-22 2.58236 	-0.186712 	-1.56691e-20 2.58502 	-0.184643 	-4.94156e-20 2.58772 	-0.182584 	-8.31371e-20 2.59404 	-0.178944 	-4.76816e-20 2.60045 	-0.175317 	-1.22419e-20 2.60452 	-0.172741 	-8.54661e-21 2.60691 	-0.170768 	-2.59301e-20 2.60935 	-0.168804 	-4.32979e-20 2.61556 	-0.165346 	-2.59874e-20 2.62187 	-0.161903 	-8.71106e-21 2.62548 	-0.159625 	-9.45545e-21 2.62767 	-0.157729 	-2.60535e-20 2.62984 	-0.155857 	-4.33789e-20 2.63595 	-0.152577 	-1.64886e-19 2.64159 	-0.149523 	-2.61786e-19 2.64504 	-0.147364 	-2.57095e-19 2.6473 	-0.145485 	-1.64747e-19 2.6492 	-0.143704 	-4.33594e-20 2.6552 	-0.140598 	-2.59814e-20 2.6602 	-0.13789 	-8.62108e-21 2.66348 	-0.135847 	8.70886e-21 2.66583 	-0.134 	2.13082e-20 2.66747 	-0.132308 	3.02502e-20 2.67334 	-0.129369 	9.13184e-20 2.67773 	-0.126972 	1.1869e-19 2.68084 	-0.12504 	1.17016e-19 2.68329 	-0.123237 	9.21102e-20 2.68466 	-0.121631 	3.16741e-20 2.6904 	-0.118856 	2.32321e-20 2.69421 	-0.116734 	1.48064e-20 2.69715 	-0.11491 	6.38571e-21 2.69969 	-0.113161 	0 2.70081 	-0.111638 	0 2.70641 	-0.109022 	0 2.70966 	-0.107144 	1.47195e-20 2.71244 	-0.105424 	3.25499e-20 2.71506 	-0.103737 	5.03651e-20 2.71593 	-0.102296 	6.8107e-20 2.7214 	-0.0998327 	1.90104e-19 2.72412 	-0.0981703 	1.93619e-19 2.72674 	-0.0965521 	1.91092e-19 2.7294 	-0.094937 	1.88615e-19 2.73007 	-0.0935698 	7.02137e-20 2.73521 	-0.091307 	5.31996e-20 2.73762 	-0.0897834 	3.62386e-20 2.74008 	-0.0882626 	1.92695e-20 2.74258 	-0.0867446 	2.29221e-21 2.74326 	-0.0854288 	1.46993e-20 2.74794 	-0.0833827 	-4.34219e-24 2.7502 	-0.0819534 	-2.98881e-23 2.7525 	-0.0805266 	-5.54239e-23 2.75484 	-0.0791021 	-8.09494e-23 2.75552 	-0.0778418 	6.3896e-21 2.75978 	-0.0759908 	-5.08103e-20 2.76189 	-0.0746522 	-4.95112e-20 2.76403 	-0.0733156 	-4.82395e-20 2.76621 	-0.0719811 	-4.69952e-20 2.7669 	-0.0707795 	-5.64421e-21 2.77077 	-0.069104 	8.55955e-23 2.77273 	-0.0678524 	6.04892e-23 2.77472 	-0.0666026 	3.53733e-23 2.77675 	-0.0653546 	1.02476e-23 2.77743 	-0.0642137 	0 2.78093 	-0.0626962 	1.11896e-20 2.78275 	-0.061528 	3.75129e-20 2.78459 	-0.0603614 	6.38276e-20 2.78647 	-0.0591963 	9.01335e-20 2.78715 	-0.0581174 	1.07496e-19 2.79031 	-0.0567421 	1.73101e-19 2.79199 	-0.0556539 	1.72023e-19 2.7937 	-0.054567 	1.70972e-19 2.79544 	-0.0534813 	1.6995e-19 2.79609 	-0.0524648 	1.02485e-19 2.79895 	-0.0512178 	8.75806e-20 2.80049 	-0.0502059 	5.3147e-20 2.80207 	-0.0491951 	1.87081e-20 2.80367 	-0.0481855 	-1.57363e-20 2.80431 	-0.0472311 	-4.66903e-20 2.80688 	-0.0460998 	-9.02129e-20 2.8083 	-0.0451608 	-8.90049e-20 2.80974 	-0.0442227 	-8.78308e-20 2.81121 	-0.0432856 	-8.66904e-20 2.81182 	-0.0423927 	-3.70499e-20 2.81413 	-0.0413659 	-4.95367e-20 2.81543 	-0.0404964 	-3.17159e-20 2.81675 	-0.0396276 	-1.39131e-20 2.8181 	-0.0387596 	3.8719e-21 2.81867 	-0.037927 	4.3104e-20 2.82076 	-0.0369948 	4.9862e-20 2.82194 	-0.0361912 	6.7333e-20 2.82314 	-0.0353883 	8.47958e-20 2.82437 	-0.0345861 	1.0225e-19 2.82491 	-0.0338123 	1.22065e-19 2.82678 	-0.0329658 	1.46229e-19 2.82785 	-0.0322249 	1.37007e-19 2.82895 	-0.0314846 	1.27805e-19 2.83006 	-0.0307448 	1.18625e-19 2.83055 	-0.0300279 	8.16885e-20 2.83224 	-0.0292593 	5.80648e-20 2.83321 	-0.0285779 	3.23166e-20 2.8342 	-0.0278968 	6.56656e-21 2.83521 	-0.0272162 	-1.91853e-20 2.83565 	-0.0265542 	-4.10464e-20 2.83717 	-0.0258565 	-5.61652e-20 2.83804 	-0.0252311 	-3.83911e-20 2.83894 	-0.0246062 	-2.06431e-20 2.83985 	-0.0239816 	-2.92117e-21 2.84023 	-0.0233722 	4.84829e-20 2.8416 	-0.022739 	1.0232e-19 2.84239 	-0.0221667 	1.1e-19 2.84319 	-0.0215947 	1.17724e-19 2.84401 	-0.021023 	1.25492e-19 2.84433 	-0.0204639 	8.86218e-20 2.84558 	-0.0198897 	7.1799e-20 2.84628 	-0.0193673 	6.32553e-20 2.84699 	-0.0188452 	5.47075e-20 2.84773 	-0.0183232 	4.61556e-20 2.84798 	-0.0178119 	3.76063e-20 2.84912 	-0.0172918 	1.44092e-20 2.84974 	-0.0168163 	1.47569e-20 2.85038 	-0.016341 	1.50821e-20 2.85103 	-0.015866 	1.53846e-20 2.85121 	-0.0154 	4.14745e-20 2.85227 	-0.0149293 	3.98579e-20 2.85282 	-