# vtk DataFile Version 2.0
track0
ASCII
DATASET POLYDATA
POINTS 12278 float
-0.0205 0.001 1e-05
-0.02052 0.000999216 1e-05
-0.02054 0.000998592 1e-05
-0.02056 0.000998126 1e-05
-0.02058 0.000997818 1e-05
-0.0206 0.000997665 1e-05
-0.0205 0.00367778 1e-05
-0.02052 0.00367703 1e-05
-0.02054 0.00367643 1e-05
-0.02056 0.00367599 1e-05
-0.02058 0.00367569 1e-05
-0.0206 0.00367554 1e-05
-0.0205 0.00635556 1e-05
-0.02052 0.00635527 1e-05
-0.02054 0.00635505 1e-05
-0.02056 0.00635488 1e-05
-0.02058 0.00635476 1e-05
-0.0206 0.00635471 1e-05
-0.0205 0.00903333 1e-05
-0.02052 0.00903311 1e-05
-0.02054 0.00903293 1e-05
-0.02056 0.0090328 1e-05
-0.02058 0.00903271 1e-05
-0.0206 0.00903266 1e-05
-0.0205 0.0117111 1e-05
-0.02052 0.0117111 1e-05
-0.02054 0.011711 1e-05
-0.02056 0.011711 1e-05
-0.02058 0.011711 1e-05
-0.0206 0.011711 1e-05
-0.0205 0.0143889 1e-05
-0.02052 0.014389 1e-05
-0.02054 0.014389 1e-05
-0.02056 0.0143891 1e-05
-0.02058 0.0143891 1e-05
-0.0206 0.0143891 1e-05
-0.0205 0.0170667 1e-05
-0.02052 0.017067 1e-05
-0.02054 0.0170672 1e-05
-0.02056 0.0170674 1e-05
-0.02058 0.0170675 1e-05
-0.0206 0.0170676 1e-05
-0.0205 0.0197444 1e-05
-0.02052 0.019745 1e-05
-0.02054 0.0197454 1e-05
-0.02056 0.0197457 1e-05
-0.02058 0.0197459 1e-05
-0.0206 0.019746 1e-05
-0.0205 0.0224222 1e-05
-0.02052 0.022423 1e-05
-0.02054 0.0224236 1e-05
-0.02056 0.0224241 1e-05
-0.02058 0.0224244 1e-05
-0.0206 0.0224245 1e-05
-0.0205 0.0251 1e-05
-0.02052 0.0251003 1e-05
-0.02054 0.0251005 1e-05
-0.02056 0.0251007 1e-05
-0.02058 0.0251008 1e-05
-0.0206 0.0251008 1e-05
-0.0205 0.001 1e-05
-0.0203632 0.00100536 1e-05
-0.0202266 0.00101331 1e-05
-0.0200901 0.00102296 1e-05
-0.0200427 0.00102682 1e-05
-0.0198376 0.00104418 1e-05
-0.0196338 0.00107322 1e-05
-0.0194327 0.00111734 1e-05
-0.0192368 0.00118024 1e-05
-0.0190172 0.00124951 1e-05
-0.0189002 0.00128348 1e-05
-0.0187827 0.00131598 1e-05
-0.0186649 0.001347 1e-05
-0.0185469 0.001377 1e-05
-0.0183807 0.00141936 1e-05
-0.0182041 0.00146458 1e-05
-0.0180267 0.00150692 1e-05
-0.0178487 0.0015464 1e-05
-0.0176703 0.00158389 1e-05
-0.0174976 0.00161991 1e-05
-0.0172846 0.00166394 1e-05
-0.0170715 0.00170741 1e-05
-0.0168583 0.00175029 1e-05
-0.0166449 0.00179219 1e-05
-0.0163945 0.00184007 1e-05
-0.0163234 0.00185324 1e-05
-0.0162522 0.00186629 1e-05
-0.016181 0.00187921 1e-05
-0.0161097 0.00189201 1e-05
-0.0160387 0.0019046 1e-05
-0.0157586 0.0019535 1e-05
-0.0154779 0.00199931 1e-05
-0.0151968 0.00204225 1e-05
-0.0149154 0.00208283 1e-05
-0.0146381 0.00212134 1e-05
-0.0143838 0.00215527 1e-05
-0.0141293 0.00218766 1e-05
-0.0138747 0.00221855 1e-05
-0.0136198 0.00224797 1e-05
-0.0132934 0.00228369 1e-05
-0.0132791 0.00228515 1e-05
-0.0132648 0.0022866 1e-05
-0.0132504 0.00228805 1e-05
-0.0132361 0.0022895 1e-05
-0.0132214 0.00229098 1e-05
-0.0129776 0.00231543 1e-05
-0.0127337 0.00233865 1e-05
-0.0124897 0.00236061 1e-05
-0.0122456 0.00238129 1e-05
-0.0120025 0.00240058 1e-05
-0.0117547 0.00241909 1e-05
-0.0115067 0.00243627 1e-05
-0.0112587 0.00245231 1e-05
-0.0110106 0.00246734 1e-05
-0.0107632 0.00248136 1e-05
-0.0105252 0.00249391 1e-05
-0.0102872 0.00250547 1e-05
-0.0100491 0.00251602 1e-05
-0.00981105 0.00252575 1e-05
-0.00957337 0.00253471 1e-05
-0.00934491 0.00254261 1e-05
-0.00911643 0.00254974 1e-05
-0.00888792 0.0025561 1e-05
-0.0086594 0.00256171 1e-05
-0.00843108 0.00256668 1e-05
-0.00821175 0.00257085 1e-05
-0.00799241 0.00257439 1e-05
-0.00777306 0.00257731 1e-05
-0.0075537 0.00257952 1e-05
-0.00733443 0.00258114 1e-05
-0.00712387 0.00258213 1e-05
-0.0069133 0.00258256 1e-05
-0.00670273 0.00258243 1e-05
-0.00649216 0.00258162 1e-05
-0.0062816 0.00258018 1e-05
-0.00607944 0.00257819 1e-05
-0.0058773 0.00257565 1e-05
-0.00567516 0.00257257 1e-05
-0.00547303 0.00256875 1e-05
-0.00527083 0.00256419 1e-05
-0.00507675 0.00255912 1e-05
-0.00488269 0.00255343 1e-05
-0.00468865 0.00254711 1e-05
-0.00449464 0.00253997 1e-05
-0.00430044 0.00253191 1e-05
-0.00411412 0.00252329 1e-05
-0.00392784 0.00251388 1e-05
-0.00374159 0.00250369 1e-05
-0.0035554 0.00249255 1e-05
-0.00336883 0.00248016 1e-05
-0.00318995 0.00246712 1e-05
-0.00301115 0.002453 1e-05
-0.00283245 0.00243775 1e-05
-0.00265386 0.00242121 1e-05
-0.00247443 0.00240315 1e-05
-0.0023027 0.00238426 1e-05
-0.00213114 0.00236384 1e-05
-0.00195982 0.00234154 1e-05
-0.00178875 0.00231739 1e-05
-0.00161577 0.00229106 1e-05
-0.00161567 0.00229104 1e-05
-0.00161557 0.00229103 1e-05
-0.00161547 0.00229101 1e-05
-0.00161537 0.00229099 1e-05
-0.00161527 0.00229098 1e-05
-0.0014505 0.00226407 1e-05
-0.00128613 0.00223481 1e-05
-0.00112219 0.00220326 1e-05
-0.000958691 0.00216947 1e-05
-0.000791418 0.00213237 1e-05
-0.000633135 0.00209426 1e-05
-0.000475556 0.00205333 1e-05
-0.000318719 0.00200964 1e-05
-0.000162835 0.00196267 1e-05
0 0.00190952 1e-05
3.73418e-05 0.00189632 1e-05
7.45835e-05 0.00188284 1e-05
0.000111727 0.00186909 1e-05
0.000148773 0.00185508 1e-05
0.000179083 0.00184338 1e-05
0.000248944 0.00181594 1e-05
0.000318394 0.00178748 1e-05
0.000387419 0.001758 1e-05
0.000456004 0.00172751 1e-05
0.000528387 0.00169413 1e-05
0.000634886 0.00164315 1e-05
0.000740278 0.00158992 1e-05
0.00084451 0.00153446 1e-05
0.00094762 0.00147693 1e-05
0.00101988 0.00143468 1e-05
0.00102808 0.00142973 1e-05
0.00103627 0.00142476 1e-05
0.00104445 0.00141977 1e-05
0.00105262 0.00141477 1e-05
0.00106088 0.0014097 1e-05
0.00116821 0.00134351 1e-05
0.00127404 0.00127495 1e-05
0.00137827 0.001204 1e-05
0.00148099 0.00113086 1e-05
0.00159668 0.00104511 1e-05
0.00159685 0.00104498 1e-05
0.00159702 0.00104485 1e-05
0.00159718 0.00104472 1e-05
0.00159735 0.00104459 1e-05
0.00159752 0.00104446 1e-05
0.00169218 0.00097089 1e-05
0.00178544 0.000895557 1e-05
0.00187722 0.000818425 1e-05
0.00196758 0.00073964 1e-05
0.00203797 0.000676367 1e-05
0.00205804 0.000657872 1e-05
0.00207803 0.000639287 1e-05
0.00209793 0.000620613 1e-05
0.00211778 0.000601876 1e-05
0.00213833 0.000582355 1e-05
0.00219145 0.000531543 1e-05
0.00224408 0.000480214 1e-05
0.0022962 0.00042836 1e-05
0.00234778 0.000375976 1e-05
0.00239407 0.000328255 1e-05
0.00245192 0.000267786 1e-05
0.00250914 0.000206718 1e-05
0.00256573 0.000145066 1e-05
0.00262181 8.29478e-05 1e-05
0.00268334 1.36147e-05 1e-05
0.00268571 1.08918e-05 1e-05
0.00268807 8.16783e-06 1e-05
0.00269044 5.44287e-06 1e-05
0.00269281 2.71689e-06 1e-05
0.00269516 0 1e-05
0.00275906 -7.37367e-05 1e-05
0.00282234 -0.000148005 1e-05
0.00288498 -0.000222813 1e-05
0.00294695 -0.000298173 1e-05
0.00300402 -0.000368654 1e-05
0.00304974 -0.000425943 1e-05
0.00309514 -0.000483479 1e-05
0.00314023 -0.000541256 1e-05
0.00318508 -0.000599229 1e-05
0.00323259 -0.000661216 1e-05
0.00325063 -0.000684991 1e-05
0.00326861 -0.000708807 1e-05
0.00328655 -0.000732662 1e-05
0.00330443 -0.000756557 1e-05
0.00332197 -0.00078009 1e-05
0.00339011 -0.000871877 1e-05
0.00345765 -0.000964107 1e-05
0.00352457 -0.00105679 1e-05
0.00359094 -0.00114986 1e-05
0.00365381 -0.00123896 1e-05
0.00368027 -0.00127686 1e-05
0.00370665 -0.00131481 1e-05
0.00373296 -0.00135282 1e-05
0.00375922 -0.00139086 1e-05
0.00378611 -0.00142994 1e-05
0.00383008 -0.00149405 1e-05
0.00387384 -0.0015583 1e-05
0.00391738 -0.0016227 1e-05
0.0039607 -0.00168725 1e-05
0.00400285 -0.00175044 1e-05
0.00407106 -0.00185328 1e-05
0.00413886 -0.0019564 1e-05
0.00420624 -0.0020598 1e-05
0.00427332 -0.00216338 1e-05
0.00434393 -0.00227307 1e-05
0.00434997 -0.00228251 1e-05
0.00435601 -0.00229196 1e-05
0.00436204 -0.00230142 1e-05
0.00436807 -0.00231087 1e-05
0.00437408 -0.0023203 1e-05
0.00445492 -0.00244725 1e-05
0.00453532 -0.00257449 1e-05
0.00461532 -0.00270197 1e-05
0.00469497 -0.00282968 1e-05
0.00477284 -0.00295498 1e-05
0.00479949 -0.00299801 1e-05
0.00482611 -0.00304105 1e-05
0.00485271 -0.00308411 1e-05
0.0048793 -0.00312718 1e-05
0.00490609 -0.00317057 1e-05
0.00496672 -0.00326878 1e-05
0.0050272 -0.00336709 1e-05
0.00508753 -0.00346548 1e-05
0.00514773 -0.00356396 1e-05
0.00520737 -0.00366161 1e-05
0.00526042 -0.00374852 1e-05
0.00531343 -0.00383546 1e-05
0.0053664 -0.00392243 1e-05
0.0054194 -0.00400938 1e-05
0.00547262 -0.00409658 1e-05
0.00551559 -0.00416689 1e-05
0.00555853 -0.00423722 1e-05
0.00560143 -0.00430757 1e-05
0.00564432 -0.00437792 1e-05
0.00568714 -0.00444811 1e-05
0.00575842 -0.00456486 1e-05
0.00582975 -0.00468158 1e-05
0.00590113 -0.00479828 1e-05
0.00597264 -0.00491488 1e-05
0.00604356 -0.00503006 1e-05
0.00607981 -0.0050887 1e-05
0.00611607 -0.00514733 1e-05
0.00615234 -0.00520596 1e-05
0.00618863 -0.00526458 1e-05
0.00622503 -0.00532326 1e-05
0.00630381 -0.00545003 1e-05
0.00638278 -0.00557668 1e-05
0.00646195 -0.00570321 1e-05
0.00654139 -0.00582957 1e-05
0.00661893 -0.00595211 1e-05
0.00666283 -0.00602103 1e-05
0.00670678 -0.00608991 1e-05
0.00675078 -0.00615876 1e-05
0.00679487 -0.00622756 1e-05
0.00683933 -0.00629671 1e-05
0.00691122 -0.00640813 1e-05
0.00698336 -0.00651937 1e-05
0.00705576 -0.00663046 1e-05
0.00712846 -0.00674134 1e-05
0.00719878 -0.00684781 1e-05
0.00726946 -0.00695406 1e-05
0.00734037 -0.00706016 1e-05
0.0074115 -0.0071661 1e-05
0.00748294 -0.00727184 1e-05
0.00755591 -0.00737909 1e-05
0.00760136 -0.0074454 1e-05
0.00764693 -0.00751163 1e-05
0.00769263 -0.00757776 1e-05
0.00773846 -0.00764381 1e-05
0.00778313 -0.00770785 1e-05
0.00790091 -0.00787582 1e-05
0.00801946 -0.00804325 1e-05
0.00813878 -0.00821013 1e-05
0.0082591 -0.00837629 1e-05
0.00837203 -0.0085302 1e-05
0.00837972 -0.00854054 1e-05
0.00838741 -0.00855087 1e-05
0.00839511 -0.00856121 1e-05
0.00840281 -0.00857154 1e-05
0.00841053 -0.00858189 1e-05
0.00852153 -0.00873056 1e-05
0.00863335 -0.0088786 1e-05
0.00874601 -0.00902601 1e-05
0.00885953 -0.00917275 1e-05
0.00896551 -0.00930787 1e-05
0.0090301 -0.00938916 1e-05
0.00909495 -0.00947024 1e-05
0.00916007 -0.00955111 1e-05
0.0092255 -0.00963173 1e-05
0.00929309 -0.00971438 1e-05
0.00934719 -0.00978002 1e-05
0.00940149 -0.00984549 1e-05
0.00945598 -0.00991079 1e-05
0.00951067 -0.00997594 1e-05
0.0095636 -0.0100386 1e-05
[...]
POINT_DATA 12278
 FIELD attributes 1
U 3 12278 float
9.72339 	0.381311 	0 9.77871 	0.305049 	0 9.83405 	0.228765 	0 9.8894 	0.152465 	0 9.94476 	0.0761532 	0 10 	0 	0
10.0671 	0.375483 	0 10.0537 	0.300387 	0 10.0403 	0.225271 	0 10.0268 	0.150141 	0 10.0134 	0.0750008 	0 10 	0 	0
10.0364 	0.141572 	0 10.0291 	0.113304 	0 10.0218 	0.085089 	0 10.0145 	0.0569263 	0 10.0071 	0.0288164 	0 10 	0 	0
10.0137 	0.111519 	0 10.011 	0.0892151 	0 10.0082 	0.0669108 	0 10.0055 	0.0446061 	0 10.0027 	0.0223012 	0 10 	0 	0
10.0097 	0.0196534 	0 10.0078 	0.0157227 	0 10.0058 	0.011792 	0 10.0039 	0.00786134 	0 10.0019 	0.00393066 	0 10 	0 	0
10.0102 	-0.0372875 	0 10.0082 	-0.02983 	0 10.0061 	-0.0223725 	0 10.0041 	-0.014915 	0 10.002 	-0.00745741 	0 10 	0 	0
10.0174 	-0.148997 	0 10.0139 	-0.119197 	0 10.0105 	-0.0893967 	0 10.007 	-0.0595953 	0 10.0035 	-0.0297933 	0 10 	0 	0
10.0362 	-0.265901 	0 10.029 	-0.212721 	0 10.0217 	-0.159534 	0 10.0145 	-0.106342 	0 10.0072 	-0.053146 	0 10 	0 	0
10.0563 	-0.387167 	0 10.045 	-0.309734 	0 10.0338 	-0.23228 	0 10.0225 	-0.15481 	0 10.0112 	-0.0773282 	0 10 	0 	0
8.30133 	-0.114495 	0 8.4287 	-0.091596 	0 8.55659 	-0.0686962 	0 8.68498 	-0.0457957 	0 8.81385 	-0.0228949 	0 8.94315 	0 	0
9.72339 	0.381311 	0 9.5415 	0.555241 	0 9.39671 	0.663651 	0 9.26203 	0.754271 	0 9.2183 	0.780385 	0 8.95344 	1.27614 	0 8.70578 	1.91036 	0 8.48173 	2.72184 	0 8.46724 	2.67123 	0 8.47252 	2.45986 	0 8.50117 	2.35314 	0 8.52498 	2.2443 	0 8.51221 	2.16311 	0 8.42487 	2.14738 	0 8.30214 	2.12559 	0 8.30117 	1.9821 	0 8.28715 	1.83798 	0 8.21181 	1.72569 	0 8.035 	1.67507 	0 7.86306 	1.62575 	0 7.68323 	1.56759 	0 7.50177 	1.50875 	0 7.42793 	1.45839 	0 7.36148 	1.40771 	0 7.27865 	1.34671 	0 7.22249 	1.32376 	0 7.16614 	1.3007 	0 7.10958 	1.27753 	0 7.07928 	1.2544 	0 7.05291 	1.23121 	0 6.97394 	1.13838 	0 6.88841 	1.05226 	0 6.79883 	0.980329 	0 6.71191 	0.932082 	0 6.6228 	0.883658 	0 6.55089 	0.833774 	0 6.49229 	0.787587 	0 6.44246 	0.743855 	0 6.3887 	0.69909 	0 6.31694 	0.642265 	0 6.31477 	0.64017 	0 6.3132 	0.638346 	0 6.31172 	0.636559 	0 6.31023 	0.63477 	0 6.30868 	0.632931 	0 6.27132 	0.597061 	0 6.23151 	0.560863 	0 6.18922 	0.524331 	0 6.1444 	0.487463 	0 6.10943 	0.456252 	0 6.07602 	0.420969 	0 6.0457 	0.390995 	0 6.01701 	0.364551 	0 5.99443 	0.3396 	0 5.97316 	0.315196 	0 5.95246 	0.289062 	0 5.92972 	0.262719 	0 5.91348 	0.241658 	0 5.90339 	0.222653 	0 5.89182 	0.203586 	0 5.87917 	0.183519 	0 5.86498 	0.163353 	0 5.85627 	0.143788 	0 5.85337 	0.1274 	0 5.84919 	0.110984 	0 5.84297 	0.0943492 	0 5.8355 	0.0776728 	0 5.83341 	0.0589704 	0 5.83631 	0.0430964 	0 5.838 	0.0272229 	0 5.83717 	0.0119252 	0 5.83535 	-0.00344161 	0 5.83921 	-0.0225431 	0 5.84732 	-0.0400347 	0 5.85424 	-0.0574722 	0 5.8586 	-0.0735392 	0 5.86185 	-0.0895803 	0 5.87121 	-0.110968 	0 5.88467 	-0.132506 	0 5.89665 	-0.153973 	0 5.9065 	-0.17334 	0 5.91507 	-0.192637 	0 5.92939 	-0.218096 	0 5.94827 	-0.247052 	0 5.96527 	-0.275868 	0 5.98121 	-0.302101 	0 5.99551 	-0.328184 	0 6.01454 	-0.359798 	0 6.03865 	-0.400962 	0 6.06025 	-0.441883 	0 6.08259 	-0.480347 	0 6.10479 	-0.520969 	0 6.13009 	-0.567626 	0 6.15457 	-0.619699 	0 6.1787 	-0.67951 	0 6.20608 	-0.738504 	0 6.23743 	-0.811895 	0 6.2649 	-0.884751 	0 6.28855 	-0.957069 	0 6.30866 	-1.02978 	0 6.30868 	-1.02983 	0 6.30869 	-1.0299 	0 6.30871 	-1.02997 	0 6.30873 	-1.03003 	0 6.30875 	-1.0301 	0 6.33253 	-1.12728 	0 6.35107 	-1.22235 	0 6.36448 	-1.31536 	0 6.37524 	-1.41404 	0 6.38852 	-1.53823 	0 6.40632 	-1.66398 	0 6.41787 	-1.78763 	0 6.40575 	-1.93014 	2.62059e-20 6.36938 	-2.0791 	5.3722e-20 6.31923 	-2.23388 	8.12243e-20 6.31102 	-2.28434 	2.33696e-20 6.29884 	-2.33167 	5.81944e-21 6.28247 	-2.3757 	3.12509e-20 6.26555 	-2.41946 	5.73029e-20 6.25121 	-2.45516 	7.91826e-20 6.22482 	-2.55101 	1.78946e-19 6.19648 	-2.6463 	2.82871e-19 6.1662 	-2.74101 	3.90929e-19 6.12005 	-2.82215 	2.74306e-19 6.0635 	-2.90248 	6.24825e-20 5.98354 	-3.02214 	4.92656e-20 5.89838 	-3.13883 	3.61819e-20 5.80151 	-3.23668 	8.5656e-21 5.70025 	-3.33259 	-1.8051e-20 5.62532 	-3.39915 	-3.61926e-20 5.61618 	-3.40845 	-3.59848e-20 5.60701 	-3.41774 	-3.57621e-20 5.59776 	-3.42638 	-3.69119e-20 5.58838 	-3.43333 	-4.17146e-20 5.57886 	-3.44034 	-4.65631e-20 5.45897 	-3.53655 	-2.82946e-20 5.33376 	-3.6308 	-9.45336e-21 5.20772 	-3.70775 	1.23699e-22 5.08149 	-3.76664 	-1.90825e-22 4.93248 	-3.83196 	7.26287e-23 4.93223 	-3.8321 	4.15618e-23 4.93198 	-3.83224 	1.04945e-23 4.93175 	-3.83233 	1.84233e-23 4.93154 	-3.83241 	4.62447e-23 4.93132 	-3.83248 	7.40749e-23 4.8056 	-3.88182 	1.12739e-21 4.6758 	-3.92957 	2.48515e-21 4.54887 	-3.96607 	4.21311e-21 4.43123 	-3.98316 	6.33831e-21 4.33591 	-3.99553 	8.20909e-21 4.30558 	-4.00319 	1.33545e-20 4.27503 	-4.01077 	1.85379e-20 4.24973 	-4.01249 	9.21983e-21 4.22456 	-4.01385 	-8.27556e-22 4.19828 	-4.0152 	-1.12448e-20 4.12446 	-4.02251 	-6.36228e-20 4.04947 	-4.02929 	-1.15633e-19 3.97344 	-4.0354 	-1.65826e-19 3.90926 	-4.02987 	-1.01577e-19 3.85045 	-4.02449 	-4.30503e-20 3.77288 	-4.02664 	4.16979e-21 3.69541 	-4.02589 	4.19857e-20 3.62352 	-4.01378 	3.4188e-20 3.55056 	-4.00119 	2.66612e-20 3.46853 	-3.9867 	1.86343e-20 3.46519 	-3.98628 	1.9261e-20 3.46184 	-3.98586 	1.98878e-20 3.45849 	-3.98544 	2.05148e-20 3.45534 	-3.98472 	2.1041e-20 3.45227 	-3.98388 	2.15256e-20 3.38414 	-3.97186 	1.41249e-20 3.31394 	-3.9577 	7.41664e-21 3.24254 	-3.94285 	7.02995e-22 3.17076 	-3.91579 	6.16961e-21 3.10312 	-3.88902 	1.2353e-20 3.06104 	-3.87901 	3.47241e-20 3.01865 	-3.86762 	5.06233e-20 2.97705 	-3.84865 	2.3362e-20 2.93505 	-3.82947 	-3.84245e-21 2.88985 	-3.80877 	-3.27684e-20 2.87172 	-3.80222 	-3.88748e-20 2.8535 	-3.79561 	-4.49833e-20 2.83521 	-3.78895 	-5.10941e-20 2.817 	-3.77988 	-5.72904e-20 2.79907 	-3.77036 	-6.34052e-20 2.74568 	-3.7493 	-1.07131e-19 2.69145 	-3.72775 	-1.50978e-19 2.63665 	-3.6971 	-1.46193e-19 2.58223 	-3.65972 	-8.81863e-20 2.52971 	-3.62362 	-3.2707e-20 2.51278 	-3.6147 	2.05613e-21 2.49582 	-3.60557 	3.52171e-20 2.47995 	-3.59318 	2.9964e-20 2.46401 	-3.58074 	2.47461e-20 2.44759 	-3.56793 	1.9428e-20 2.41705 	-3.54885 	5.65476e-20 2.38625 	-3.52957 	9.35877e-20 2.3552 	-3.51009 	1.30546e-19 2.3252 	-3.48558 	1.03452e-19 2.29579 	-3.46113 	7.22979e-20 2.25886 	-3.43544 	4.24497e-20 2.22148 	-3.40943 	1.25692e-20 2.18692 	-3.37658 	-2.89624e-21 2.15211 	-3.34338 	-1.81005e-20 2.11499 	-3.30805 	-3.4204e-20 2.11128 	-3.30519 	-3.17787e-20 2.10756 	-3.30233 	-2.93562e-20 2.10384 	-3.29946 	-2.69365e-20 2.10034 	-3.29603 	-3.39927e-20 2.09685 	-3.29259 	-4.13459e-20 2.06013 	-3.2603 	-1.64622e-19 2.0244 	-3.22597 	-2.56611e-19 1.98935 	-3.18987 	-2.99656e-19 1.95712 	-3.14898 	-1.9332e-19 1.92535 	-3.10875 	-8.89852e-20 1.91675 	-3.09907 	-7.78957e-20 1.90813 	-3.08937 	-6.6802e-20 1.9008 	-3.07853 	-5.65322e-20 1.89376 	-3.06743 	-4.6453e-20 1.88667 	-3.05624 	-3.62981e-20 1.86474 	-3.03086 	-1.17572e-20 1.84269 	-3.00537 	1.2805e-20 1.8211 	-2.97921 	2.99826e-20 1.80207 	-2.95024 	1.21466e-20 1.78318 	-2.92149 	-5.52576e-21 1.76978 	-2.90253 	-2.11429e-20 1.75636 	-2.88355 	-3.67482e-20 1.74512 	-2.86326 	-1.81162e-20 1.73482 	-2.84246 	1.47135e-20 1.72452 	-2.82162 	4.76498e-20 1.7122 	-2.80442 	1.21448e-20 1.69984 	-2.78721 	-2.33101e-20 1.68813 	-2.76952 	-3.49299e-20 1.67805 	-2.75067 	1.29533e-20 1.66801 	-2.73187 	6.07053e-20 1.65468 	-2.70767 	1.97468e-19 1.64138 	-2.68349 	3.34169e-19 1.63046 	-2.65855 	2.96356e-19 1.6213 	-2.63312 	1.3361e-19 1.61239 	-2.60808 	-2.78287e-20 1.60458 	-2.59472 	-5.73815e-20 1.59678 	-2.58136 	-8.69423e-20 1.58979 	-2.56766 	-8.97892e-20 1.58391 	-2.5535 	-5.62892e-20 1.57805 	-2.53935 	-2.27626e-20 1.56806 	-2.51483 	-2.4624e-20 1.55818 	-2.49041 	-2.65253e-20 1.55024 	-2.46586 	-1.93301e-20 1.5448 	-2.44117 	-4.99245e-22 1.53973 	-2.41736 	1.77508e-20 1.53309 	-2.40287 	2.9724e-20 1.52647 	-2.38841 	4.16926e-20 1.52116 	-2.37373 	4.57245e-20 1.51681 	-2.3589 	4.41014e-20 1.51249 	-2.34403 	4.24483e-20 1.50725 	-2.32429 	2.55694e-20 1.50214 	-2.30467 	8.66487e-21 1.49811 	-2.28526 	-3.12994e-21 1.49676 	-2.26621 	-1.118e-21 1.49566 	-2.24805 	8.14805e-22 1.48869 	-2.22753 	7.6246e-20 1.48182 	-2.20711 	1.51904e-19 1.47756 	-2.18686 	1.25776e-19 1.47423 	-2.16676 	6.78008e-20 1.471 	-2.14648 	8.99881e-21 1.4698 	-2.13593 	-2.33716e-20 1.46866 	-2.12544 	-5.56984e-20 1.46777 	-2.11512 	-8.20276e-20 1.4693 	-2.10623 	-3.64973e-20 1.47086 	-2.09766 	7.88479e-21 1.46373 	-2.06744 	4.60788e-21 1.45691 	-2.03751 	1.31318e-21 1.45614 	-2.01094 	-2.34664e-20 1.4567 	-1.98524 	-5.17434e-20 1.45931 	-1.96227 	-7.48832e-20 1.45884 	-1.96031 	-6.85584e-20 1.45837 	-1.95835 	-6.22875e-20 1.45832 	-1.9566 	-6.7022e-20 1.45827 	-1.95485 	-7.17542e-20 1.45822 	-1.9531 	-7.64967e-20 1.45634 	-1.92817 	-2.09552e-19 1.45484 	-1.90354 	-3.41873e-19 1.45406 	-1.87949 	-4.46637e-19 1.45832 	-1.85927 	-1.91208e-19 1.46268 	-1.8409 	4.7099e-20 1.46054 	-1.826 	1.11162e-19 1.4585 	-1.8112 	1.75012e-19 1.45942 	-1.79852 	1.42318e-19 1.46047 	-1.78595 	1.09724e-19 1.46168 	-1.77312 	7.6312e-20 1.4626 	-1.76355 	6.73814e-20 1.46361 	-1.75405 	5.84728e-20 1.4647 	-1.74461 	4.95865e-20 1.46731 	-1.73643 	5.16605e-20 1.46998 	-1.72866 	5.41774e-20 1.46946 	-1.70539 	2.94869e-20 1.4693 	-1.68241 	4.73452e-21 1.47222 	-1.66185 	2.02477e-20 1.47681 	-1.64239 	4.53341e-20 1.48276 	-1.62528 	6.85652e-20 1.48274 	-1.62122 	6.74485e-20 1.48282 	-1.61723 	6.76121e-20 1.48341 	-1.61361 	7.51582e-20 1.48401 	-1.61001 	8.27023e-20 1.48463 	-1.60637 	9.03343e-20 1.48734 	-1.59063 	1.3973e-19 1.49032 	-1.57508 	1.89004e-19 1.49356 	-1.55973 	2.38151e-19 1.49874 	-1.54623 	1.68536e-19 1.50415 	-1.53405 	8.22261e-20 1.50581 	-1.51456 	1.55562e-19 1.50831 	-1.4958 	2.03649e-19 1.51293 	-1.47899 	1.6181e-19 1.51789 	-1.46243 	1.20502e-19 1.5236 	-1.44494 	7.67312e-20 1.52362 	-1.44487 	7.64688e-20 1.52365 	-1.4448 	7.62064e-20 1.52367 	-1.44473 	7.59441e-20 1.5237 	-1.44466 	7.62929e-20 1.52374 	-1.4446 	7.69094e-20 1.52814 	-1.42758 	1.26646e-19 1.53294 	-1.41083 	1.7469e-19 1.53812 	-1.39434 	2.22342e-19 1.54489 	-1.37962 	1.84262e-19 1.55199 	-1.3667 	1.17134e-19 1.55533 	-1.34909 	2.03161e-19 1.55954 	-1.33238 	2.39486e-19 1.56518 	-1.31724 	1.74742e-19 1.57116 	-1.30233 	1.10213e-19 1.57752 	-1.28879 	3.78385e-20 1.57774 	-1.2878 	3.75877e-20 1.57801 	-1.28686 	3.67604e-20 1.57833 	-1.28598 	3.52061e-20 1.57865 	-1.2851 	3.36514e-20 1.57898 	-1.28421 	3.20877e-20 1.5842 	-1.27026 	-1.34377e-20 1.58971 	-1.25651 	-5.8884e-20 1.59553 	-1.24295 	-1.04248e-19 1.60224 	-1.2306 	-8.93479e-20 1.6093 	-1.21987 	-3.00292e-20 1.61375 	-1.20435 	-7.54146e-20 1.61851 	-1.18904 	-1.21213e-19 1.62459 	-1.17566 	-1.03731e-19 1.63189 	-1.163 	-6.09353e-20 1.63991 	-1.15162 	3.29785e-22 1.6422 	-1.1448 	2.87721e-20 1.64481 	-1.13848 	2.82609e-20 1.64767 	-1.13252 	7.11658e-21 1.65059 	-1.12661 	-1.39771e-20 1.65372 	-1.12044 	-3.60701e-20 1.65737 	-1.11361 	-6.80235e-20 1.6611 	-1.10683 	-9.98649e-20 1.66492 	-1.1001 	-1.31594e-19 1.66897 	-1.09381 	-1.3115e-19 1.67321 	-1.08832 	-7.98819e-20 1.67836 	-1.07458 	-1.11919e-19 1.68438 	-1.06132 	-1.36155e-19 1.69172 	-1.04892 	-1.45573e-19 1.6999 	-1.03831 	-1.35244e-19 1.70799 	-1.02834 	-1.25255e-19 1.71377 	-1.01483 	-2.75557e-19 1.72003 	-1.00214 	-3.50178e-19 1.72692 	-0.990698 	-2.96107e-19 1.73407 	-0.979417 	-2.42544e-19 1.74236 	-0.96934 	-1.1608e-19 1.74446 	-0.965008 	-8.26004e-20 1.74671 	-0.961127 	-8.48137e-20 1.74901 	-0.95738 	-9.66633e-20 1.75135 	-0.95365 	-1.08465e-19 1.75382 	-0.949777 	-1.20724e-19 1.75868 	-0.942413 	-1.24337e-19 1.76367 	-0.935117 	-1.27922e-19 1.76878 	-0.927887 	-1.3148e-19 1.77402 	-0.920948 	-1.29667e-19 1.77937 	-0.915176 	-1.05256e-19 1.78541 	-0.903245 	-1.32866e-19 1.79247 	-0.891887 	-1.44809e-19 1.80041 	-0.881034 	-1.43581e-19 1.80872 	-0.871967 	-1.02961e-19 1.81701 	-0.863436 	-6.0936e-20 1.82362 	-0.851745 	-1.64896e-19 1.8305 	-0.84022 	-2.66862e-19 1.83766 	-0.830528 	-2.25548e-19 1.84587 	-0.821421 	-1.27944e-19 1.85456 	-0.812975 	4.41661e-23 1.86117 	-0.802427 	1.42366e-22 1.86794 	-0.793511 	1.07778e-22 1.8749 	-0.784737 	6.91755e-23 1.88206 	-0.776064 	3.01445e-23 1.89043 	-0.766303 	-1.47796e-23 1.89081 	-0.765879 	7.22544e-22 1.8912 	-0.765456 	1.45938e-21 1.89159 	-0.765033 	2.19572e-21 1.89197 	-0.76461 	2.93157e-21 1.89235 	-0.76427 	4.30229e-22 1.89983 	-0.754815 	-2.53326e-20 1.90762 	-0.745531 	-4.72015e-20 1.91563 	-0.736359 	-6.8892e-20 1.92387 	-0.72731 	-8.98782e-20 1.93177 	-0.720323 	-3.11937e-20 1.93866 	-0.710367 	-2.11232e-20 1.94623 	-0.700849 	-1.39164e-20 1.95461 	-0.691866 	-1.04033e-20 1.96278 	-0.684595 	-1.59796e-20 1.97092 	-0.677727 	-2.24448e-20 1.97824 	-0.66802 	5.39469e-20 1.98577 	-0.658415 	1.30451e-19 1.9932 	-0.650328 	1.32359e-19 2.00151 	-0.643382 	6.57225e-20 2.00985 	-0.636639 	1.63136e-22 2.01756 	-0.627187 	9.69825e-23 2.02509 	-0.618811 	-1.11924e-20 2.03252 	-0.61127 	-3.1038e-20 2.04012 	-0.603808 	-5.08599e-20 2.04859 	-0.597169 	-6.38964e-20 2.05549 	-0.589471 	-1.0643e-19 2.06201 	-0.582966 	-1.09983e-19 2.06867 	-0.576519 	-1.13595e-19 2.07547 	-0.570129 	-1.17266e-19 2.08343 	-0.562855 	-1.2155e-19 2.08419 	-0.562184 	-1.22745e-19 2.08496 	-0.561513 	-1.23939e-19 2.08574 	-0.560843 	-1.25133e-19 2.08651 	-0.560173 	-1.26326e-19 2.08722 	-0.559629 	-1.2228e-19 2.09468 	-0.552328 	-9.43145e-20 2.10237 	-0.545171 	-6.50712e-20 2.11024 	-0.538082 	-3.58658e-20 2.11828 	-0.531063 	-6.69854e-21 2.12555 	-0.525573 	1.79215e-22 2.1327 	-0.517807 	6.74863e-20 2.14053 	-0.510825 	8.64273e-20 2.14854 	-0.503933 	1.03565e-19 2.1562 	-0.497857 	8.43255e-20 2.16321 	-0.492939 	1.48979e-20 2.1706 	-0.485416 	-5.5042e-20 2.17821 	-0.478042 	-1.18771e-19 2.18628 	-0.471402 	-1.35001e-19 2.19319 	-0.466537 	-6.72699e-20 2.20017 	-0.461756 	-7.24637e-23 2.20775 	-0.454476 	-3.95631e-23 2.21551 	-0.447255 	-6.83465e-24 2.22263 	-0.441391 	0 2.22947 	-0.436674 	0 2.23638 	-0.432031 	0 2.24413 	-0.424992 	0 2.2518 	-0.418275 	0 2.2583 	-0.41304 	0 2.265 	-0.408264 	-1.01437e-20 2.27181 	-0.403759 	-2.51656e-20 2.27969 	-0.39696 	-6.23006e-21 2.28661 	-0.391323 	-6.35484e-21 2.2931 	-0.386273 	-1.58207e-20 2.29972 	-0.381287 	-2.67339e-20 2.3064 	-0.37692 	-6.64757e-20 2.3141 	-0.370607 	-2.84806e-20 2.32045 	-0.365706 	-3.02699e-20 2.32692 	-0.360838 	-3.2031e-20 2.33351 	-0.356003 	-3.37642e-20 2.3401 	-0.351486 	-4.64679e-20 2.34634 	-0.346626 	-3.6917e-20 2.35195 	-0.342413 	-3.83669e-20 2.35765 	-0.338224 	-3.97953e-20 2.36344 	-0.33406 	-4.12024e-20 2.37029 	-0.329243 	-4.28149e-20 2.37081 	-0.328884 	-4.26958e-20 2.37134 	-0.328527 	-4.25769e-20 2.37186 	-0.328169 	-4.24582e-20 2.37239 	-0.327811 	-4.23396e-20 2.37285 	-0.327508 	-4.25183e-20 2.37902 	-0.322918 	-4.92235e-20 2.38528 	-0.318382 	-5.37724e-20 2.39165 	-0.313875 	-5.82443e-20 2.39813 	-0.309394 	-6.26397e-20 2.40377 	-0.305667 	-3.89646e-20 2.4101 	-0.300951 	-7.51727e-20 2.41626 	-0.296591 	-8.73057e-20 2.42253 	-0.292256 	-9.93798e-20 2.4289 	-0.287947 	-1.11396e-19 2.43354 	-0.28496 	-7.13027e-20 2.44012 	-0.280176 	-1.18591e-19 2.44616 	-0.275989 	-1.21118e-19 2.4523 	-0.271825 	-1.23598e-19 2.45819 	-0.267921 	-1.18999e-19 2.46216 	-0.265357 	-7.53445e-20 2.46877 	-0.26074 	-1.17873e-19 2.47494 	-0.256535 	-1.28021e-19 2.48094 	-0.25254 	-1.22416e-19 2.48588 	-0.249279 	-9.48007e-20 2.48961 	-0.24682 	-4.31993e-20 2.4962 	-0.242407 	4.31578e-20 2.50259 	-0.238187 	1.03869e-19 2.50843 	-0.234358 	1.09365e-19 2.51241 	-0.231669 	5.03701e-20 2.5159 	-0.229314 	-2.66955e-20 2.52243 	-0.2251 	-1.75922e-20 2.52908 	-0.220904 	-8.49867e-21 2.5346 	-0.21732 	8.66913e-21 2.53778 	-0.215053 	2.59574e-20 2.54101 	-0.212799 	4.32206e-20 2.54749 	-0.20878 	-4.33235e-20 2.55407 	-0.204778 	-1.2988e-19 2.55906 	-0.201557 	-1.41243e-19 2.56198 	-0.19939 	-7.10814e-20 2.56495 	-0.197235 	-1.01872e-21 2.57135 	-0.193407 	-1.05182e-22 2.57785 	-0.189595 	7.87557e-22 2.58236 	-0.18671 	-1.56688e-20 2.58502 	-0.184641 	-4.94153e-20 2.58772 	-0.182582 	-8.31369e-20 2.59404 	-0.178942 	-4.76814e-20 2.60045 	-0.175315 	-1.22416e-20 2.60452 	-0.172739 	-8.54662e-21 2.60691 	-0.170766 	-2.59302e-20 2.60935 	-0.168802 	-4.3298e-20 2.61557 	-0.165344 	-2.59875e-20 2.62187 	-0.161901 	-8.71132e-21 2.62548 	-0.159623 	-9.4557e-21 2.62767 	-0.157727 	-2.60536e-20 2.62984 	-0.155855 	-4.33789e-20 2.63595 	-0.152576 	-1.64886e-19 2.64159 	-0.149521 	-2.61785e-19 2.64504 	-0.147362 	-2.57094e-19 2.6473 	-0.145483 	-1.64747e-19 2.64921 	-0.143702 	-4.33594e-20 2.6552 	-0.140596 	-2.59815e-20 2.6602 	-0.137889 	-8.62109e-21 2.66348 	-0.135845 	8.70887e-21 2.66583 	-0.133999 	2.13083e-20 2.66747 	-0.132306 	3.02503e-20 2.67334 	-0.129368 	9.13186e-20 2.67773 	-0.12697 	1.1869e-19 2.68085 	-0.125038 	1.17016e-19 2.68329 	-0.123236 	9.21104e-20 2.68466 	-0.121629 	3.16742e-20 2.6904 	-0.118854 	2.32322e-20 2.69421 	-0.116732 	1.48065e-20 2.69715 	-0.114908 	6.38575e-21 2.69969 	-0.113159 	0 2.70081 	-0.111637 	0 2.70641 	-0.109021 	0 2.70966 	-0.107142 	1.47196e-20 2.71244 	-0.105423 	3.255e-20 2.71506 	-0.103735 	5.03652e-20 2.71593 	-0.102294 	6.81071e-20 2.7214 	-0.0998316 	1.90104e-19 2.72412 	-0.0981692 	1.9362e-19 2.72674 	-0.096551 	1.91093e-19 2.7294 	-0.094936 	1.88616e-19 2.73007 	-0.0935687 	7.02138e-20 2.73521 	-0.091306 	5.31996e-20 2.73762 	-0.0897824 	3.62386e-20 2.74008 	-0.0882617 	1.92695e-20 2.74258 	-0.0867437 	2.29219e-21 2.74326 	-0.0854279 	1.46994e-20 2.74794 	-0.0833819 	-4.34215e-24 2.7502 	-0.0819526 	-2.98881e-23 2.7525 	-0.0805257 	-5.54239e-23 2.75484 	-0.0791013 	-8.09495e-23 2.75552 	-0.077841 	6.38963e-21 2.75979 	-0.0759901 	-5.08106e-20 2.76189 	-0.0746514 	-4.95115e-20 2.76403 	-0.0733149 	-4.82398e-20 2.76621 	-0.0719804 	-4.69956e-20 2.7669 	-0.0707789 	-5.64425e-21 2.77077 	-0.0691034 	8.55955e-23 2.77273 	-0.0678518 	6.04892e-23 2.77472 	-0.066602 	3.53732e-23 2.77675 	-0.065354 	1.02475e-23 2.77743 	-0.0642132 	0 2.78093 	-0.0626957 	1.11895e-20 2.78275 	-0.0615276 	3.75129e-20 2.78459 	-0.060361 	6.38275e-20 2.78648 	-0.0591959 	9.01335e-20 2.78715 	-0.058117 	1.07495e-19 2.79032 	-0.0567418 	1.73102e-19 2.79199 	-0.0556536 	1.72024e-19 2.7937 	-0.0545667 	1.70973e-19 2.79544 	-0.053481 	1.6995e-19 2.79609 	-0.0524645 	1.02484e-19 2.79895 	-0.0512175 	8.75806e-20 2.80049 	-0.0502057 	5.3147e-20 2.80207 	-0.0491949 	1.8708e-20 2.80367 	-0.0481853 	-1.57365e-20 2.80431 	-0.047231 	-4.66905e-20 2.80688 	-0.0460996 	-9.02138e-20 2.8083 	-0.0451607 	-8.90059e-20 2.80974 	-0.0442226 	-8.78317e-20 2.81121 	-0.0432855 	-8.66914e-20 2.81182 	-0.0423927 	-3.70498e-20 2.81414 	-0.0413659 	-4.95372e-20 2.81543 	-0.0404963 	-3.17165e-20 2.81675 	-0.0396276 	-1.39136e-20 2.8181 	-0.0387596 	3.87144e-21 2.81867 	-0.037927 	4.3104e-20 2.82076 	-0.0369948 	4.98618e-20 2.82194 	-0.0361913 	6.73329e-20 2.82314 	-0.0353884 	8.47956e-20 2.82437 	-0.0345862 	1.0225e-19 2.82491 	-0.0338124 	1.22066e-19 2.82678 	-0.032966 	1.4623e-19 2.82785 	-0.0322251 	1.37007e-19 2.82895 	-0.0314848 	1.27806e-19 2.83006 	-0.030745 	1.18626e-19 2.83055 	-0.0300282 	8.16885e-20 2.83224 	-0.0292596 	5.80648e-20 2.83321 	-0.0285781 	3.23166e-20 2.8342 	-0.0278971 	6.56652e-21 2.83521 	-0.0272165 	-1.91854e-20 2.83565 	-0.0265545 	-4.10464e-20 2.83717 	-0.0258568 	-5.61661e-20 2.83804 	-0.0252315 	-3.8392e-20 2.83894 	-0.0246065 	-2.06439e-20 2.83985 	-0.0239819 	-2.92196e-21 2.84023 	-0.0233726 	4.84832e-20 2.84161 	-0.0227394 	1.02322e-19 2.84239 	-0.0221671 	1.10002e-19 2.84319 	-0.0215951 	1.17726e-19 2.84401 	-0.0210234 	1.25493e-19 2.84433 	-0.0204643 	8.8622e-20 2.84558 	-0.0198901 	7.1799e-20 2.84628 	-0.0193678 	6.32553e-20 2.847 	-0.0188456 	5.47075e-20 2.84773 	-0.0183237 	4.61556e-20 2.84798 	-0.0178124 	3.76063e-20 2.84912 	-0.0172923 	1.44086e-20 2.84975 	-0.0168168 	1.47563e-20 2.85038 	-0.0163416 	1.50815e-20 2.85103 	-0.0158665 	1.53841e-20 2.85122 	-0.0154005 	4.14746e-20 2.85227 	-0.0149298 	3.98579e-20 2.85282 	-0.01449