# vtk DataFile Version 2.0
track0
ASCII
DATASET POLYDATA
POINTS 12278 float
-0.0205 0.001 1e-05
-0.02052 0.000999216 1e-05
-0.02054 0.000998592 1e-05
-0.02056 0.000998126 1e-05
-0.02058 0.000997818 1e-05
-0.0206 0.000997665 1e-05
-0.0205 0.00367778 1e-05
-0.02052 0.00367703 1e-05
-0.02054 0.00367643 1e-05
-0.02056 0.00367599 1e-05
-0.02058 0.00367569 1e-05
-0.0206 0.00367554 1e-05
-0.0205 0.00635556 1e-05
-0.02052 0.00635527 1e-05
-0.02054 0.00635505 1e-05
-0.02056 0.00635488 1e-05
-0.02058 0.00635476 1e-05
-0.0206 0.00635471 1e-05
-0.0205 0.00903333 1e-05
-0.02052 0.00903311 1e-05
-0.02054 0.00903293 1e-05
-0.02056 0.0090328 1e-05
-0.02058 0.00903271 1e-05
-0.0206 0.00903266 1e-05
-0.0205 0.0117111 1e-05
-0.02052 0.0117111 1e-05
-0.02054 0.011711 1e-05
-0.02056 0.011711 1e-05
-0.02058 0.011711 1e-05
-0.0206 0.011711 1e-05
-0.0205 0.0143889 1e-05
-0.02052 0.014389 1e-05
-0.02054 0.014389 1e-05
-0.02056 0.0143891 1e-05
-0.02058 0.0143891 1e-05
-0.0206 0.0143891 1e-05
-0.0205 0.0170667 1e-05
-0.02052 0.017067 1e-05
-0.02054 0.0170672 1e-05
-0.02056 0.0170674 1e-05
-0.02058 0.0170675 1e-05
-0.0206 0.0170676 1e-05
-0.0205 0.0197444 1e-05
-0.02052 0.019745 1e-05
-0.02054 0.0197454 1e-05
-0.02056 0.0197457 1e-05
-0.02058 0.0197459 1e-05
-0.0206 0.019746 1e-05
-0.0205 0.0224222 1e-05
-0.02052 0.022423 1e-05
-0.02054 0.0224236 1e-05
-0.02056 0.0224241 1e-05
-0.02058 0.0224244 1e-05
-0.0206 0.0224245 1e-05
-0.0205 0.0251 1e-05
-0.02052 0.0251003 1e-05
-0.02054 0.0251005 1e-05
-0.02056 0.0251007 1e-05
-0.02058 0.0251008 1e-05
-0.0206 0.0251008 1e-05
-0.0205 0.001 1e-05
-0.0203632 0.00100536 1e-05
-0.0202266 0.00101331 1e-05
-0.0200901 0.00102296 1e-05
-0.0200427 0.00102682 1e-05
-0.0198376 0.00104418 1e-05
-0.0196338 0.00107322 1e-05
-0.0194327 0.00111734 1e-05
-0.0192368 0.00118024 1e-05
-0.0190172 0.00124951 1e-05
-0.0189002 0.00128348 1e-05
-0.0187827 0.00131598 1e-05
-0.0186649 0.001347 1e-05
-0.0185469 0.001377 1e-05
-0.0183807 0.00141936 1e-05
-0.0182041 0.00146458 1e-05
-0.0180267 0.00150692 1e-05
-0.0178487 0.0015464 1e-05
-0.0176703 0.00158389 1e-05
-0.0174976 0.00161991 1e-05
-0.0172846 0.00166394 1e-05
-0.0170715 0.00170741 1e-05
-0.0168583 0.00175029 1e-05
-0.0166449 0.00179219 1e-05
-0.0163945 0.00184007 1e-05
-0.0163234 0.00185324 1e-05
-0.0162522 0.00186629 1e-05
-0.016181 0.00187921 1e-05
-0.0161097 0.00189201 1e-05
-0.0160387 0.0019046 1e-05
-0.0157586 0.0019535 1e-05
-0.0154779 0.00199931 1e-05
-0.0151968 0.00204225 1e-05
-0.0149154 0.00208283 1e-05
-0.0146381 0.00212134 1e-05
-0.0143838 0.00215527 1e-05
-0.0141293 0.00218766 1e-05
-0.0138747 0.00221855 1e-05
-0.0136198 0.00224797 1e-05
-0.0132934 0.00228369 1e-05
-0.0132791 0.00228515 1e-05
-0.0132648 0.0022866 1e-05
-0.0132504 0.00228805 1e-05
-0.0132361 0.0022895 1e-05
-0.0132214 0.00229098 1e-05
-0.0129776 0.00231543 1e-05
-0.0127337 0.00233865 1e-05
-0.0124897 0.00236061 1e-05
-0.0122456 0.00238129 1e-05
-0.0120025 0.00240058 1e-05
-0.0117547 0.00241909 1e-05
-0.0115067 0.00243627 1e-05
-0.0112587 0.00245231 1e-05
-0.0110106 0.00246734 1e-05
-0.0107632 0.00248136 1e-05
-0.0105252 0.00249391 1e-05
-0.0102872 0.00250547 1e-05
-0.0100491 0.00251602 1e-05
-0.00981105 0.00252575 1e-05
-0.00957337 0.00253471 1e-05
-0.00934491 0.00254261 1e-05
-0.00911643 0.00254974 1e-05
-0.00888792 0.0025561 1e-05
-0.0086594 0.00256171 1e-05
-0.00843108 0.00256668 1e-05
-0.00821175 0.00257084 1e-05
-0.00799241 0.00257439 1e-05
-0.00777306 0.00257731 1e-05
-0.0075537 0.00257952 1e-05
-0.00733443 0.00258114 1e-05
-0.00712387 0.00258212 1e-05
-0.0069133 0.00258255 1e-05
-0.00670273 0.00258243 1e-05
-0.00649216 0.00258162 1e-05
-0.0062816 0.00258018 1e-05
-0.00607944 0.00257819 1e-05
-0.0058773 0.00257565 1e-05
-0.00567516 0.00257256 1e-05
-0.00547303 0.00256874 1e-05
-0.00527083 0.00256419 1e-05
-0.00507675 0.00255912 1e-05
-0.00488269 0.00255343 1e-05
-0.00468865 0.00254711 1e-05
-0.00449464 0.00253997 1e-05
-0.00430044 0.00253191 1e-05
-0.00411412 0.00252329 1e-05
-0.00392784 0.00251388 1e-05
-0.00374159 0.00250369 1e-05
-0.0035554 0.00249255 1e-05
-0.00336883 0.00248016 1e-05
-0.00318995 0.00246712 1e-05
-0.00301115 0.002453 1e-05
-0.00283245 0.00243775 1e-05
-0.00265386 0.00242121 1e-05
-0.00247443 0.00240314 1e-05
-0.0023027 0.00238426 1e-05
-0.00213114 0.00236384 1e-05
-0.00195982 0.00234154 1e-05
-0.00178875 0.00231738 1e-05
-0.00161577 0.00229106 1e-05
-0.00161568 0.00229104 1e-05
-0.00161558 0.00229102 1e-05
-0.00161549 0.00229101 1e-05
-0.00161539 0.00229099 1e-05
-0.00161529 0.00229098 1e-05
-0.00145052 0.00226407 1e-05
-0.00128615 0.00223481 1e-05
-0.0011222 0.00220326 1e-05
-0.000958696 0.00216947 1e-05
-0.000791418 0.00213236 1e-05
-0.000633135 0.00209425 1e-05
-0.000475556 0.00205332 1e-05
-0.000318719 0.00200964 1e-05
-0.000162835 0.00196267 1e-05
0 0.00190951 1e-05
3.73388e-05 0.00189631 1e-05
7.45776e-05 0.00188284 1e-05
0.000111718 0.00186909 1e-05
0.000148761 0.00185508 1e-05
0.000179069 0.00184338 1e-05
0.000248933 0.00181594 1e-05
0.000318386 0.00178747 1e-05
0.000387413 0.001758 1e-05
0.000456001 0.00172751 1e-05
0.000528387 0.00169413 1e-05
0.000634886 0.00164315 1e-05
0.000740278 0.00158992 1e-05
0.00084451 0.00153445 1e-05
0.00094762 0.00147692 1e-05
0.00101987 0.00143468 1e-05
0.00102807 0.00142973 1e-05
0.00103626 0.00142476 1e-05
0.00104445 0.00141977 1e-05
0.00105262 0.00141476 1e-05
0.00106088 0.00140969 1e-05
0.00116821 0.0013435 1e-05
0.00127404 0.00127494 1e-05
0.00137827 0.00120399 1e-05
0.00148099 0.00113085 1e-05
0.00159667 0.00104511 1e-05
0.00159684 0.00104498 1e-05
0.00159701 0.00104484 1e-05
0.00159718 0.00104471 1e-05
0.00159735 0.00104458 1e-05
0.00159752 0.00104445 1e-05
0.00169217 0.000970882 1e-05
0.00178543 0.000895551 1e-05
0.00187721 0.000818421 1e-05
0.00196757 0.000739638 1e-05
0.00203796 0.000676367 1e-05
0.00205803 0.000657869 1e-05
0.00207802 0.000639282 1e-05
0.00209793 0.000620605 1e-05
0.00211778 0.000601865 1e-05
0.00213833 0.000582342 1e-05
0.00219145 0.000531532 1e-05
0.00224408 0.000480206 1e-05
0.00229619 0.000428355 1e-05
0.00234777 0.000375973 1e-05
0.00239406 0.000328255 1e-05
0.00245191 0.000267783 1e-05
0.00250914 0.000206712 1e-05
0.00256573 0.000145057 1e-05
0.00262181 8.29353e-05 1e-05
0.00268334 1.35983e-05 1e-05
0.0026857 1.08787e-05 1e-05
0.00268807 8.158e-06 1e-05
0.00269043 5.43632e-06 1e-05
0.0026928 2.71363e-06 1e-05
0.00269515 0 1e-05
0.00275905 -7.37367e-05 1e-05
0.00282232 -0.000148005 1e-05
0.00288496 -0.000222813 1e-05
0.00294694 -0.000298173 1e-05
0.00300401 -0.000368654 1e-05
0.00304973 -0.000425947 1e-05
0.00309513 -0.000483486 1e-05
0.00314023 -0.000541267 1e-05
0.00318507 -0.000599243 1e-05
0.00323259 -0.000661235 1e-05
0.00325062 -0.000685006 1e-05
0.00326861 -0.000708818 1e-05
0.00328654 -0.000732669 1e-05
0.00330442 -0.000756561 1e-05
0.00332195 -0.000780089 1e-05
0.00339009 -0.000871877 1e-05
0.00345764 -0.000964107 1e-05
0.00352455 -0.00105679 1e-05
0.00359093 -0.00114986 1e-05
0.00365379 -0.00123896 1e-05
0.00368026 -0.00127686 1e-05
0.00370664 -0.00131482 1e-05
0.00373295 -0.00135283 1e-05
0.00375921 -0.00139088 1e-05
0.00378611 -0.00142996 1e-05
0.00383008 -0.00149406 1e-05
0.00387384 -0.00155831 1e-05
0.00391738 -0.00162271 1e-05
0.00396069 -0.00168726 1e-05
0.00400283 -0.00175044 1e-05
0.00407105 -0.00185328 1e-05
0.00413886 -0.0019564 1e-05
0.00420623 -0.00205981 1e-05
0.00427332 -0.00216339 1e-05
0.00434393 -0.00227309 1e-05
0.00434997 -0.00228253 1e-05
0.004356 -0.00229197 1e-05
0.00436203 -0.00230142 1e-05
0.00436806 -0.00231087 1e-05
0.00437407 -0.0023203 1e-05
0.00445491 -0.00244725 1e-05
0.00453531 -0.00257449 1e-05
0.00461531 -0.00270197 1e-05
0.00469496 -0.00282968 1e-05
0.00477283 -0.00295498 1e-05
0.00479948 -0.00299801 1e-05
0.00482611 -0.00304106 1e-05
0.00485271 -0.00308412 1e-05
0.0048793 -0.00312719 1e-05
0.00490609 -0.00317059 1e-05
0.00496672 -0.0032688 1e-05
0.0050272 -0.0033671 1e-05
0.00508753 -0.00346549 1e-05
0.00514772 -0.00356396 1e-05
0.00520736 -0.00366161 1e-05
0.00526041 -0.00374852 1e-05
0.00531343 -0.00383546 1e-05
0.0053664 -0.00392243 1e-05
0.00541939 -0.00400938 1e-05
0.00547262 -0.00409659 1e-05
0.00551559 -0.0041669 1e-05
0.00555853 -0.00423722 1e-05
0.00560143 -0.00430757 1e-05
0.00564432 -0.00437792 1e-05
0.00568713 -0.00444811 1e-05
0.00575842 -0.00456486 1e-05
0.00582975 -0.00468158 1e-05
0.00590113 -0.00479827 1e-05
0.00597264 -0.00491488 1e-05
0.00604356 -0.00503005 1e-05
0.00607981 -0.00508869 1e-05
0.00611607 -0.00514733 1e-05
0.00615234 -0.00520596 1e-05
0.00618863 -0.00526458 1e-05
0.00622503 -0.00532326 1e-05
0.00630381 -0.00545003 1e-05
0.00638278 -0.00557667 1e-05
0.00646195 -0.0057032 1e-05
0.00654139 -0.00582956 1e-05
0.00661893 -0.0059521 1e-05
0.00666283 -0.00602102 1e-05
0.00670678 -0.0060899 1e-05
0.00675079 -0.00615876 1e-05
0.00679488 -0.00622756 1e-05
0.00683935 -0.00629671 1e-05
0.00691123 -0.00640812 1e-05
0.00698337 -0.00651936 1e-05
0.00705577 -0.00663044 1e-05
0.00712846 -0.00674132 1e-05
0.00719878 -0.00684778 1e-05
0.00726947 -0.00695403 1e-05
0.00734038 -0.00706014 1e-05
0.00741152 -0.00716609 1e-05
0.00748296 -0.00727183 1e-05
0.00755594 -0.00737909 1e-05
0.00760138 -0.00744539 1e-05
0.00764694 -0.00751161 1e-05
0.00769264 -0.00757774 1e-05
0.00773846 -0.00764377 1e-05
0.00778313 -0.0077078 1e-05
0.00790091 -0.00787577 1e-05
0.00801946 -0.0080432 1e-05
0.00813878 -0.00821008 1e-05
0.0082591 -0.00837624 1e-05
0.00837203 -0.00853015 1e-05
0.00837973 -0.00854049 1e-05
0.00838743 -0.00855084 1e-05
0.00839513 -0.00856119 1e-05
0.00840284 -0.00857153 1e-05
0.00841057 -0.00858189 1e-05
0.00852156 -0.00873054 1e-05
0.00863337 -0.00887858 1e-05
0.00874602 -0.00902597 1e-05
0.00885954 -0.0091727 1e-05
0.00896551 -0.0093078 1e-05
0.00903011 -0.00938911 1e-05
0.00909498 -0.0094702 1e-05
0.00916011 -0.00955108 1e-05
0.00922554 -0.00963172 1e-05
0.00929315 -0.00971438 1e-05
0.00934724 -0.00978 1e-05
0.00940152 -0.00984546 1e-05
0.009456 -0.00991075 1e-05
0.00951068 -0.00997587 1e-05
0.0095636 -0.0100385 1e-05
[...]
POINT_DATA 12278
 FIELD attributes 2
p 1 12278 float
177013 177095 177168 177231 177285 177330
108947 108965 108981 108995 109008 109018
87753.5 87763.1 87772.4 87781.6 87790.5 87798.9
79935.8 79942.1 79948.3 79954.4 79960.5 79966.4
77144.9 77154.1 77163.3 77172.5 77181.7 77191
77562.2 77575.8 77589.4 77603 77616.5 77630.1
81095.4 81107.8 81120.1 81132.2 81144.1 81155.9
90921.9 90941.6 90960.6 90979 90996.6 91013.4
117354 117387 117417 117445 117471 117495
215473 215283 215091 214897 214701 214503
177013 173408 169081 164503 162836 158905 155522 152871 144706 134665 129222 123794 119855 119245 118393 112347 106448 102326 101431 100564 99581.8 98599.6 97173 95704.7 93989 93622.6 93255.6 92888 92407 91909.3 89989.7 88185.8 86671.9 85884.5 85107.8 84422 83757.2 83107.4 82455.6 81621.7 81586.8 81557.9 81529.8 81501.8 81473 80940.2 80407.9 79876.1 79344.8 78919.7 78493.5 78084.3 77686.6 77311 76945.1 76595.1 76244.8 75921.1 75619.6 75318.6 75029.1 74739.4 74460.9 74198.1 73935.5 73681.8 73428.1 73178 72941.9 72705.8 72476.9 72248 72017.5 71798 71578.8 71365.1 71151.6 70933 70722.1 70511.5 70304.3 70097.4 69884.4 69672 69459.8 69247.9 69036.5 68821.3 68593.3 68365.7 68132.7 67897.1 67653 67400.4 67134.5 66854.2 66540.4 66228.2 65917.6 65604.6 65604.4 65604.2 65603.9 65603.6 65603.4 65212.1 64826.6 64446.7 64048.6 63568.5 63053 62543.2 61842.2 61069.1 60255.9 60007.7 59769.7 59542.7 59316.3 59131 58574 58014.9 57453.7 56980.4 56512 55907.4 55304.7 54764.9 54223.8 53839.5 53781.3 53723.1 53667.7 53620.1 53571.8 53018.6 52458.3 51940.3 51467.9 50922.6 50921.5 50920.4 50919.5 50918.7 50917.9 50490.8 50056.2 49653.7 49318.3 49049.3 48950 48850.3 48779.4 48709.7 48637.1 48448.7 48257.9 48065.3 47920.9 47788.9 47616.1 47447.4 47307.7 47166 47006.7 47000.3 46993.9 46987.5 46981.7 46976.2 46870.9 46758.6 46643.8 46530.6 46423.6 46388.1 46351.3 46311.7 46271.3 46227.5 46207.4 46187.2 46166.7 46145.6 46124.5 46099.1 46072.4 46035.3 45993 45951.5 45953.9 45956 45955.3 45954.5 45953.6 45942.3 45930.6 45918.4 45903.4 45888.2 45898 45907.1 45911.6 45915.6 45919.3 45918.5 45917.6 45916.8 45915.7 45914.7 45928.2 45941.8 45954.5 45965.2 45975.5 45985.8 45996.1 46005.9 46015.6 46025.4 46036.9 46048.3 46059.5 46070.6 46081.5 46100 46118.4 46136.8 46155.4 46174 46182.6 46191.1 46199.8 46208.9 46218 46240.7 46263.4 46286.8 46310.7 46334.5 46341.9 46349.3 46357 46365.3 46373.6 46396.8 46420.1 46444.3 46469.5 46494.3 46503.2 46512.1 46521.8 46532 46542.3 46562 46581.7 46602.1 46624 46645.3 46659.1 46673.1 46688.8 46705.1 46721.8 46733.3 46744.9 46756.6 46769.3 46781.7 46803.6 46825.8 46851.2 46877.4 46903.3 46904.5 46905.6 46907 46908.3 46909.7 46930.9 46952.3 46974.1 46998 47020.3 47029.9 47039.5 47050.5 47061.6 47073 47082.7 47092.4 47102.2 47112.6 47122.8 47139.9 47157.3 47176.2 47196.1 47215.5 47218 47220.7 47223.6 47226.6 47229.6 47243.9 47258.3 47272.9 47288.5 47303.4 47317.1 47331.3 47346.8 47362.4 47379.3 47379.4 47379.4 47379.5 47379.6 47379.7 47394.3 47409 47423.8 47439.7 47455 47467 47479.6 47493.2 47506.9 47520 47520.6 47521.3 47522 47522.6 47523.3 47535.1 47547 47558.9 47571.5 47583.9 47594.2 47604.6 47616.2 47628.4 47640.4 47644.4 47648.8 47653.5 47658.2 47663.1 47668.9 47674.8 47680.7 47686.8 47693.2 47702 47711.1 47720.9 47731.8 47742.2 47749.8 47757.9 47766.8 47775.8 47784.9 47787 47789.5 47792 47794.6 47797.2 47802.6 47808 47813.3 47818.8 47824.9 47831.1 47837.7 47844.6 47852.6 47860.5 47865.5 47870.6 47876.8 47883.5 47890.2 47893.8 47898.5 47903.2 47907.8 47913.1 47913.3 47913.6 47913.8 47914.1 47914.4 47918.5 47922.7 47926.8 47930.9 47936 47938.3 47940.9 47943.8 47947.7 47951.6 47952.7 47953.8 47955.8 47958.5 47961.2 47961.2 47961.7 47962.5 47963.4 47964.9 47964 47963.8 47963.5 47963.2 47962.8 47962.8 47962.7 47962.7 47962.7 47962.7 47961.4 47960.1 47958.7 47957.3 47956.5 47953.4 47950.8 47948.2 47946 47944.2 47939.8 47935.5 47931.8 47928.7 47925.7 47920.2 47914.6 47909.7 47905.4 47901.2 47894.5 47887.9 47881.9 47876.2 47870.7 47863 47855.6 47848.3 47841.1 47834.4 47825.7 47817.3 47809 47800.6 47792.5 47783.9 47775.4 47767 47758.5 47748.7 47747.9 47747.2 47746.5 47745.7 47745 47734.6 47724.1 47713.7 47703.2 47692.9 47681.1 47669.6 47658.1 47646.6 47635.3 47622.4 47609.9 47597.4 47584.9 47572.6 47558.7 47545.1 47531.6 47518.2 47504.9 47490.1 47475.3 47460.9 47446.6 47432.4 47416.7 47400.9 47385.7 47370.5 47355.3 47338.7 47322.2 47305.9 47289.8 47273.8 47256.4 47239.1 47221.9 47205 47188.1 47170 47151.9 47133.8 47116.1 47098.4 47079.6 47060.7 47041.9 47023.4 47004.9 46985.4 46965.9 46946.3 46927 46907.8 46887.7 46867.5 46847.3 46827.3 46807.4 46786.6 46765.8 46745 46724.3 46703.7 46682.4 46661 46639.6 46618.2 46597 46575.2 46553.2 46531.2 46509.2 46487.5 46465.1 46442.6 46420.1 46397.6 46375.3 46352.4 46329.4 46306.4 46283.4 46260.6 46237.2 46213.8 46190.3 46166.8 46143.5 46119.7 46095.8 46071.9 46048 46024.2 46000 45975.7 45951.4 45927 45902.8 45878.2 45853.5 45828.8 45804.1 45779.5 45754.5 45729.5 45704.4 45679.3 45654.3 45629 45603.6 45578.2 45552.8 45527.5 45501.8 45476.1 45450.4 45424.7 45399 45373 45347 45321 45295 45269 45242.7 45216.4 45190.1 45163.8 45137.5 45111 45084.5 45057.9 45031.3 45004.8 44978 44951.2 44924.4 44897.5 44870.7 44843.7 44816.7 44789.6 44762.5 44735.5 44708.2 44680.9 44653.7 44626.4 44599.1 44571.6 44544.1 44516.6 44489.1 44461.6 44433.9 44406.2 44378.5 44350.8 44323.1 44295.2 44267.3 44239.4 44211.4 44183.5 44155.4 44127.3 44099.2 44071.1 44043 44014.7 43986.5 43958.2 43929.9 43901.6 43873.1 43844.6 43816.2 43787.7 43759.2 43730.6 43701.9 43673.2 43644.6 43615.9 43587.1 43558.3 43529.5 43500.6 43471.8 43442.8 43413.8 43384.8 43355.8 43326.8 43297.6 43268.4 43239.3 43210.1 43180.9 43151.6 43122.2 43092.9 43063.5 43034.2 43004.7 42975.2 42945.6 42916.1 42886.6 42856.9 42827.2 42797.5 42767.8 42738.1 42708.3 42678.4 42648.6 42618.7 42588.8 42558.8 42528.8 42498.8 42468.7 42438.7 42408.5 42378.3 42348.1 42317.9 42287.6 42257.3 42226.9 42196.5 42166.1 42135.7 42105.2 42074.6 42044 42013.5 41982.9 41952.2 41921.4 41890.7 41859.9 41829.1 41798.2 41767.3 41736.4 41705.4 41674.5 41643.4 41612.3 41581.1 41550 41518.8 41487.6 41456.3 41424.9 41393.6 41362.3 41330.8 41299.3 41267.8 41236.3 41204.7 41173.1 41141.4 41109.7 41077.9 41046.2 41014.3 40982.4 40950.5 40918.6 40886.6 40854.6 40822.4 40790.3 40758.2 40726 40693.8 40661.4 40629.1 40596.8 40564.4 40531.9 40499.4 40466.8 40434.3 40401.7 40369 40336.2 40303.5 40270.7 40237.9 40205 40172 40139 40106 40073 40039.8 40006.6 39973.4 39940.2 39906.9 39873.5 39840.1 39806.7 39773.2 39739.7 39706.1 39672.4 39638.7 39605.1 39571.3 39537.5 39503.6 39469.7 39435.7 39401.8 39367.7 39333.5 39299.4 39265.2 39231 39196.7 39162.3 39127.9 39093.5 39059 39024.4 38989.8 38955.1 38920.5 38885.7 38850.9 38816 38781.1 38746.2 38711.2 38676.1 38641 38605.8 38570.7 38535.4 38500.1 38464.7 38429.3 38393.8 38358.3 38322.7 38287.1 38251.4 38215.7 38179.9 38144.1 38108.1 38072.2 38036.2 38000.2 37964 37927.8 37891.6 37855.4 37819.1 37782.7 37746.2 37709.7 37673.2 37636.6 37599.9 37563.2 37526.4 37489.6 37452.8 37415.8 37378.8 37341.7 37304.7 37267.5 37230.3 37193 37155.6 37118.3 37080.9 37043.3 37005.7 36968.1 36930.5 36892.8 36855 36817.1 36779.2 36741.3 36703.3 36665.2 36627 36588.8 36550.6 36512.3 36473.9 36435.4 36396.9 36358.4 36319.8 36281.1 36242.4 36203.6 36164.8 36125.9 36086.9 36047.9 36008.8 35969.6 35930.5 35891.2 35851.8 35812.4 35773 35733.5 35693.9 35654.3 35614.6 35574.8 35535.1 35495.1 35455.2 35415.2 35375.1 35335.1 35294.8 35254.6 35214.2 35173.9 35133.5 35092.9 35052.4 35011.8 34971.1 34930.4 34889.5 34848.6 34807.7 34766.7 34725.7 34684.5 34643.3 34602 34560.7 34519.4 34477.9 34436.3 34394.8 34353.1 34311.5 34269.6 34227.8 34185.9 34143.9 34102 34059.8 34017.6 33975.4 33933.1 33890.8 33848.3 33805.8 33763.3 33720.6 33678 33635.2 33592.4 33549.5 33506.5 33463.6 33420.4 33377.3 33334 33290.7 33247.4 33204 33160.5 33116.9 33073.3 33029.6 32985.8 32942 32898.1 32854.1 32810.2 32766 32721.8 32677.6 32633.3 32588.9 32544.4 32499.9 32455.3 32410.7 32366 32321.2 32276.3 32231.4 32186.4 32141.4 32096.2 32050.9 32005.7 31960.3 31914.9 31869.4 31823.8 31778.2 31732.5 31686.8 31640.9 31594.9 31549 31502.9 31456.8 31410.5 31364.3 31317.9 31271.5 31225.1 31178.4 31131.8 31085.1 31038.3 30991.5 30944.5 30897.5 30850.5 30803.3 30756.2 30708.8 30661.4 30614 30566.5 30519 30471.2 30423.5 30375.7 30327.8 30279.9 30231.8 30183.7 30135.5 30087.2 30039 29990.5 29942 29893.5 29844.8 29796.2 29747.3 29698.5 29649.5 29600.5 29551.5 29502.2 29453 29403.7 29354.3 29304.9 29255.2 29205.6 29155.9 29106.1 29056.3 29006.3 28956.3 28906.2 28856 28805.8 28755.4 28705 28654.5 28603.9 28553.3 28502.5 28451.7 28400.8 28349.8 28298.9 28247.6 28196.4 28145.1 28093.7 28042.4 27990.7 27939.1 27887.4 27835.6 27783.8 27731.8 27679.7 27627.6 27575.4 27523.2 27470.8 27418.3 27365.8 27313.2 27260.6 27207.7 27154.8 27101.8 27048.8 26995.8 26942.5 26889.2 26835.8 26782.3 26728.9 26675.1 26621.4 26567.6 26513.7 26459.8 26405.7 26351.5 26297.3 26243 26188.7 26134.2 26079.6 26025 25970.3 25915.6 25860.6 25805.6 25750.6 25695.6 25640.5 25585.1 25529.8 25474.5 25419.1 25363.7 25308 25252.4 25196.8 25141.1 25085.5 25029.6 24973.8 24918.1 24862.4 24806.6 24750.7 24694.9 24639.2 24583.6 24527.9 24472.2 24416.9 24361.8 24306.7 24252 24197.3 24142.4 24087.4 24032.4 23977 23922.3 23873.6 23825 23776.4 23732.6 23683.4 23618.1 23552.6 23487.1 23412.6 23361.4 23331 23301 23271.2 23257 23252.8 23248.7 23244.5 23240.3 23238.8 23236.2 23230.9 23225.7 23220.4 23214.7 23187.7 23160.5 23133.1 23105.4 23061.8 22985.9 22916.9 22848 22779.1 22722.8 22671.7 22615.4 22559 22502.7 22440 22372.2 22304.2 22236.1 22167.9 22099.5 22028.2 21955 21881.7 21808.5 21733.1 21654.9 21575.1 21495.3 21415.5 21334.1 21249.8 21163.7 21077.5 20991.4 20903.4 20812.4 20719.5 20626.5 20533.5 20438.7 20340.6 20240.4 20140.1 20039.7 19937.4 19831.5 19723.3 19615 19506.6 19396.1 19281.8 19164.7 19047.5 18930.2 18810.4 18686.4 18559.6 18432.7 18305.7 18176.3 18042.2 17904.3 17766.1 17627.8 17485.9 17338.9 17189.3 17039.4 16889.4 16737.2 16579.4 16414.8 16249.9 16084.7 15913.2 15735.5 15557.3 15379.2 15201 15022.9 14838.3 14638.8 14438.4 14237.4 14022.1 13798.9 13585.8 13373.3 13161.4 12960 12751.2 12503.7 12253.9 12002 11712.7 11412.6 11157.2 10904.7 10654.9 10450.2 10237.6 9921.62 9598.04 9265.88 8833.2 8384.21 8071.45 7773.84 7494.25 7349.14 7198.11 6801.63 6357.17 5838.93 5089.56 4311.28 3779.13 3398.21 3250.87 3316.6 3382.92 3361.98 2777.11 1388.14 0