# vtk DataFile Version 2.0
track0
ASCII
DATASET POLYDATA
POINTS 12278 float
-0.0205 0.001 1e-05
-0.02052 0.000999216 1e-05
-0.02054 0.000998592 1e-05
-0.02056 0.000998126 1e-05
-0.02058 0.000997818 1e-05
-0.0206 0.000997665 1e-05
-0.0205 0.00367778 1e-05
-0.02052 0.00367703 1e-05
-0.02054 0.00367643 1e-05
-0.02056 0.00367599 1e-05
-0.02058 0.00367569 1e-05
-0.0206 0.00367554 1e-05
-0.0205 0.00635556 1e-05
-0.02052 0.00635527 1e-05
-0.02054 0.00635505 1e-05
-0.02056 0.00635488 1e-05
-0.02058 0.00635476 1e-05
-0.0206 0.00635471 1e-05
-0.0205 0.00903333 1e-05
-0.02052 0.00903311 1e-05
-0.02054 0.00903293 1e-05
-0.02056 0.0090328 1e-05
-0.02058 0.00903271 1e-05
-0.0206 0.00903266 1e-05
-0.0205 0.0117111 1e-05
-0.02052 0.0117111 1e-05
-0.02054 0.011711 1e-05
-0.02056 0.011711 1e-05
-0.02058 0.011711 1e-05
-0.0206 0.011711 1e-05
-0.0205 0.0143889 1e-05
-0.02052 0.014389 1e-05
-0.02054 0.014389 1e-05
-0.02056 0.0143891 1e-05
-0.02058 0.0143891 1e-05
-0.0206 0.0143891 1e-05
-0.0205 0.0170667 1e-05
-0.02052 0.017067 1e-05
-0.02054 0.0170672 1e-05
-0.02056 0.0170674 1e-05
-0.02058 0.0170675 1e-05
-0.0206 0.0170676 1e-05
-0.0205 0.0197444 1e-05
-0.02052 0.019745 1e-05
-0.02054 0.0197454 1e-05
-0.02056 0.0197457 1e-05
-0.02058 0.0197459 1e-05
-0.0206 0.019746 1e-05
-0.0205 0.0224222 1e-05
-0.02052 0.022423 1e-05
-0.02054 0.0224236 1e-05
-0.02056 0.0224241 1e-05
-0.02058 0.0224244 1e-05
-0.0206 0.0224245 1e-05
-0.0205 0.0251 1e-05
-0.02052 0.0251003 1e-05
-0.02054 0.0251005 1e-05
-0.02056 0.0251007 1e-05
-0.02058 0.0251008 1e-05
-0.0206 0.0251008 1e-05
-0.0205 0.001 1e-05
-0.0203632 0.00100536 1e-05
-0.0202266 0.00101331 1e-05
-0.0200901 0.00102296 1e-05
-0.0200427 0.00102682 1e-05
-0.0198376 0.00104418 1e-05
-0.0196338 0.00107322 1e-05
-0.0194327 0.00111734 1e-05
-0.0192368 0.00118024 1e-05
-0.0190172 0.00124951 1e-05
-0.0189002 0.00128348 1e-05
-0.0187827 0.00131598 1e-05
-0.0186649 0.001347 1e-05
-0.0185469 0.001377 1e-05
-0.0183807 0.00141936 1e-05
-0.0182041 0.00146458 1e-05
-0.0180267 0.00150692 1e-05
-0.0178487 0.0015464 1e-05
-0.0176703 0.00158389 1e-05
-0.0174976 0.00161991 1e-05
-0.0172846 0.00166394 1e-05
-0.0170715 0.00170741 1e-05
-0.0168583 0.00175029 1e-05
-0.0166449 0.00179219 1e-05
-0.0163945 0.00184007 1e-05
-0.0163234 0.00185324 1e-05
-0.0162522 0.00186629 1e-05
-0.016181 0.00187921 1e-05
-0.0161097 0.00189201 1e-05
-0.0160387 0.0019046 1e-05
-0.0157586 0.0019535 1e-05
-0.0154779 0.00199931 1e-05
-0.0151968 0.00204225 1e-05
-0.0149154 0.00208283 1e-05
-0.0146381 0.00212134 1e-05
-0.0143838 0.00215527 1e-05
-0.0141293 0.00218766 1e-05
-0.0138747 0.00221855 1e-05
-0.0136198 0.00224797 1e-05
-0.0132934 0.00228369 1e-05
-0.0132791 0.00228515 1e-05
-0.0132648 0.0022866 1e-05
-0.0132504 0.00228805 1e-05
-0.0132361 0.0022895 1e-05
-0.0132214 0.00229098 1e-05
-0.0129776 0.00231543 1e-05
-0.0127337 0.00233865 1e-05
-0.0124897 0.00236061 1e-05
-0.0122456 0.00238129 1e-05
-0.0120025 0.00240058 1e-05
-0.0117547 0.00241909 1e-05
-0.0115067 0.00243627 1e-05
-0.0112587 0.00245231 1e-05
-0.0110106 0.00246734 1e-05
-0.0107632 0.00248136 1e-05
-0.0105252 0.00249391 1e-05
-0.0102872 0.00250547 1e-05
-0.0100491 0.00251602 1e-05
-0.00981105 0.00252575 1e-05
-0.00957337 0.00253471 1e-05
-0.00934491 0.00254261 1e-05
-0.00911643 0.00254974 1e-05
-0.00888792 0.0025561 1e-05
-0.0086594 0.00256171 1e-05
-0.00843108 0.00256668 1e-05
-0.00821175 0.00257084 1e-05
-0.00799241 0.00257439 1e-05
-0.00777306 0.00257731 1e-05
-0.0075537 0.00257952 1e-05
-0.00733443 0.00258114 1e-05
-0.00712387 0.00258212 1e-05
-0.0069133 0.00258255 1e-05
-0.00670273 0.00258243 1e-05
-0.00649216 0.00258162 1e-05
-0.0062816 0.00258018 1e-05
-0.00607944 0.00257819 1e-05
-0.0058773 0.00257565 1e-05
-0.00567516 0.00257256 1e-05
-0.00547303 0.00256874 1e-05
-0.00527083 0.00256419 1e-05
-0.00507675 0.00255912 1e-05
-0.00488269 0.00255343 1e-05
-0.00468865 0.00254711 1e-05
-0.00449464 0.00253997 1e-05
-0.00430044 0.00253191 1e-05
-0.00411412 0.00252329 1e-05
-0.00392784 0.00251388 1e-05
-0.00374159 0.00250369 1e-05
-0.0035554 0.00249255 1e-05
-0.00336883 0.00248016 1e-05
-0.00318995 0.00246712 1e-05
-0.00301115 0.002453 1e-05
-0.00283245 0.00243775 1e-05
-0.00265386 0.00242121 1e-05
-0.00247443 0.00240314 1e-05
-0.0023027 0.00238426 1e-05
-0.00213114 0.00236384 1e-05
-0.00195982 0.00234154 1e-05
-0.00178875 0.00231738 1e-05
-0.00161577 0.00229106 1e-05
-0.00161568 0.00229104 1e-05
-0.00161558 0.00229102 1e-05
-0.00161549 0.00229101 1e-05
-0.00161539 0.00229099 1e-05
-0.00161529 0.00229098 1e-05
-0.00145052 0.00226407 1e-05
-0.00128615 0.00223481 1e-05
-0.0011222 0.00220326 1e-05
-0.000958696 0.00216947 1e-05
-0.000791418 0.00213236 1e-05
-0.000633135 0.00209425 1e-05
-0.000475556 0.00205332 1e-05
-0.000318719 0.00200964 1e-05
-0.000162835 0.00196267 1e-05
0 0.00190951 1e-05
3.73388e-05 0.00189631 1e-05
7.45776e-05 0.00188284 1e-05
0.000111718 0.00186909 1e-05
0.000148761 0.00185508 1e-05
0.000179069 0.00184338 1e-05
0.000248933 0.00181594 1e-05
0.000318386 0.00178747 1e-05
0.000387413 0.001758 1e-05
0.000456001 0.00172751 1e-05
0.000528387 0.00169413 1e-05
0.000634886 0.00164315 1e-05
0.000740278 0.00158992 1e-05
0.00084451 0.00153445 1e-05
0.00094762 0.00147692 1e-05
0.00101987 0.00143468 1e-05
0.00102807 0.00142973 1e-05
0.00103626 0.00142476 1e-05
0.00104445 0.00141977 1e-05
0.00105262 0.00141476 1e-05
0.00106088 0.00140969 1e-05
0.00116821 0.0013435 1e-05
0.00127404 0.00127494 1e-05
0.00137827 0.00120399 1e-05
0.00148099 0.00113085 1e-05
0.00159667 0.00104511 1e-05
0.00159684 0.00104498 1e-05
0.00159701 0.00104484 1e-05
0.00159718 0.00104471 1e-05
0.00159735 0.00104458 1e-05
0.00159752 0.00104445 1e-05
0.00169217 0.000970882 1e-05
0.00178543 0.000895551 1e-05
0.00187721 0.000818421 1e-05
0.00196757 0.000739638 1e-05
0.00203796 0.000676367 1e-05
0.00205803 0.000657869 1e-05
0.00207802 0.000639282 1e-05
0.00209793 0.000620605 1e-05
0.00211778 0.000601865 1e-05
0.00213833 0.000582342 1e-05
0.00219145 0.000531532 1e-05
0.00224408 0.000480206 1e-05
0.00229619 0.000428355 1e-05
0.00234777 0.000375973 1e-05
0.00239406 0.000328255 1e-05
0.00245191 0.000267783 1e-05
0.00250914 0.000206712 1e-05
0.00256573 0.000145057 1e-05
0.00262181 8.29353e-05 1e-05
0.00268334 1.35983e-05 1e-05
0.0026857 1.08787e-05 1e-05
0.00268807 8.158e-06 1e-05
0.00269043 5.43632e-06 1e-05
0.0026928 2.71363e-06 1e-05
0.00269515 0 1e-05
0.00275905 -7.37367e-05 1e-05
0.00282232 -0.000148005 1e-05
0.00288496 -0.000222813 1e-05
0.00294694 -0.000298173 1e-05
0.00300401 -0.000368654 1e-05
0.00304973 -0.000425947 1e-05
0.00309513 -0.000483486 1e-05
0.00314023 -0.000541267 1e-05
0.00318507 -0.000599243 1e-05
0.00323259 -0.000661235 1e-05
0.00325062 -0.000685006 1e-05
0.00326861 -0.000708818 1e-05
0.00328654 -0.000732669 1e-05
0.00330442 -0.000756561 1e-05
0.00332195 -0.000780089 1e-05
0.00339009 -0.000871877 1e-05
0.00345764 -0.000964107 1e-05
0.00352455 -0.00105679 1e-05
0.00359093 -0.00114986 1e-05
0.00365379 -0.00123896 1e-05
0.00368026 -0.00127686 1e-05
0.00370664 -0.00131482 1e-05
0.00373295 -0.00135283 1e-05
0.00375921 -0.00139088 1e-05
0.00378611 -0.00142996 1e-05
0.00383008 -0.00149406 1e-05
0.00387384 -0.00155831 1e-05
0.00391738 -0.00162271 1e-05
0.00396069 -0.00168726 1e-05
0.00400283 -0.00175044 1e-05
0.00407105 -0.00185328 1e-05
0.00413886 -0.0019564 1e-05
0.00420623 -0.00205981 1e-05
0.00427332 -0.00216339 1e-05
0.00434393 -0.00227309 1e-05
0.00434997 -0.00228253 1e-05
0.004356 -0.00229197 1e-05
0.00436203 -0.00230142 1e-05
0.00436806 -0.00231087 1e-05
0.00437407 -0.0023203 1e-05
0.00445491 -0.00244725 1e-05
0.00453531 -0.00257449 1e-05
0.00461531 -0.00270197 1e-05
0.00469496 -0.00282968 1e-05
0.00477283 -0.00295498 1e-05
0.00479948 -0.00299801 1e-05
0.00482611 -0.00304106 1e-05
0.00485271 -0.00308412 1e-05
0.0048793 -0.00312719 1e-05
0.00490609 -0.00317059 1e-05
0.00496672 -0.0032688 1e-05
0.0050272 -0.0033671 1e-05
0.00508753 -0.00346549 1e-05
0.00514772 -0.00356396 1e-05
0.00520736 -0.00366161 1e-05
0.00526041 -0.00374852 1e-05
0.00531343 -0.00383546 1e-05
0.0053664 -0.00392243 1e-05
0.00541939 -0.00400938 1e-05
0.00547262 -0.00409659 1e-05
0.00551559 -0.0041669 1e-05
0.00555853 -0.00423722 1e-05
0.00560143 -0.00430757 1e-05
0.00564432 -0.00437792 1e-05
0.00568713 -0.00444811 1e-05
0.00575842 -0.00456486 1e-05
0.00582975 -0.00468158 1e-05
0.00590113 -0.00479827 1e-05
0.00597264 -0.00491488 1e-05
0.00604356 -0.00503005 1e-05
0.00607981 -0.00508869 1e-05
0.00611607 -0.00514733 1e-05
0.00615234 -0.00520596 1e-05
0.00618863 -0.00526458 1e-05
0.00622503 -0.00532326 1e-05
0.00630381 -0.00545003 1e-05
0.00638278 -0.00557667 1e-05
0.00646195 -0.0057032 1e-05
0.00654139 -0.00582956 1e-05
0.00661893 -0.0059521 1e-05
0.00666283 -0.00602102 1e-05
0.00670678 -0.0060899 1e-05
0.00675079 -0.00615876 1e-05
0.00679488 -0.00622756 1e-05
0.00683935 -0.00629671 1e-05
0.00691123 -0.00640812 1e-05
0.00698337 -0.00651936 1e-05
0.00705577 -0.00663044 1e-05
0.00712846 -0.00674132 1e-05
0.00719878 -0.00684778 1e-05
0.00726947 -0.00695403 1e-05
0.00734038 -0.00706014 1e-05
0.00741152 -0.00716609 1e-05
0.00748296 -0.00727183 1e-05
0.00755594 -0.00737909 1e-05
0.00760138 -0.00744539 1e-05
0.00764694 -0.00751161 1e-05
0.00769264 -0.00757774 1e-05
0.00773846 -0.00764377 1e-05
0.00778313 -0.0077078 1e-05
0.00790091 -0.00787577 1e-05
0.00801946 -0.0080432 1e-05
0.00813878 -0.00821008 1e-05
0.0082591 -0.00837624 1e-05
0.00837203 -0.00853015 1e-05
0.00837973 -0.00854049 1e-05
0.00838743 -0.00855084 1e-05
0.00839513 -0.00856119 1e-05
0.00840284 -0.00857153 1e-05
0.00841057 -0.00858189 1e-05
0.00852156 -0.00873054 1e-05
0.00863337 -0.00887858 1e-05
0.00874602 -0.00902597 1e-05
0.00885954 -0.0091727 1e-05
0.00896551 -0.0093078 1e-05
0.00903011 -0.00938911 1e-05
0.00909498 -0.0094702 1e-05
0.00916011 -0.00955108 1e-05
0.00922554 -0.00963172 1e-05
0.00929315 -0.00971438 1e-05
0.00934724 -0.00978 1e-05
0.00940152 -0.00984546 1e-05
0.009456 -0.00991075 1e-05
0.00951068 -0.00997587 1e-05
0.0095636 -0.0100385 1e-05
[...]
POINT_DATA 12278
 FIELD attributes 1
U 3 12278 float
9.72339 	0.381311 	0 9.77871 	0.305049 	0 9.83405 	0.228765 	0 9.8894 	0.152465 	0 9.94476 	0.0761532 	0 10 	0 	0
10.0671 	0.375483 	0 10.0537 	0.300387 	0 10.0403 	0.225271 	0 10.0268 	0.150141 	0 10.0134 	0.0750008 	0 10 	0 	0
10.0364 	0.141572 	0 10.0291 	0.113304 	0 10.0218 	0.085089 	0 10.0145 	0.0569263 	0 10.0071 	0.0288164 	0 10 	0 	0
10.0137 	0.111519 	0 10.011 	0.0892151 	0 10.0082 	0.0669108 	0 10.0055 	0.0446061 	0 10.0027 	0.0223012 	0 10 	0 	0
10.0097 	0.0196533 	0 10.0078 	0.0157227 	0 10.0058 	0.011792 	0 10.0039 	0.00786133 	0 10.0019 	0.00393066 	0 10 	0 	0
10.0102 	-0.0372875 	0 10.0082 	-0.02983 	0 10.0061 	-0.0223725 	0 10.0041 	-0.014915 	0 10.002 	-0.00745741 	0 10 	0 	0
10.0174 	-0.148997 	0 10.0139 	-0.119197 	0 10.0105 	-0.0893968 	0 10.007 	-0.0595953 	0 10.0035 	-0.0297933 	0 10 	0 	0
10.0362 	-0.265901 	0 10.029 	-0.212721 	0 10.0217 	-0.159534 	0 10.0145 	-0.106342 	0 10.0072 	-0.053146 	0 10 	0 	0
10.0563 	-0.387167 	0 10.045 	-0.309734 	0 10.0338 	-0.23228 	0 10.0225 	-0.15481 	0 10.0112 	-0.0773281 	0 10 	0 	0
8.30133 	-0.114495 	0 8.4287 	-0.091596 	0 8.55659 	-0.0686962 	0 8.68498 	-0.0457957 	0 8.81385 	-0.0228949 	0 8.94315 	0 	0
9.72339 	0.381311 	0 9.5415 	0.555241 	0 9.39671 	0.663651 	0 9.26203 	0.754271 	0 9.2183 	0.780385 	0 8.95344 	1.27614 	0 8.70578 	1.91036 	0 8.48173 	2.72184 	0 8.46724 	2.67123 	0 8.47252 	2.45986 	0 8.50117 	2.35314 	0 8.52498 	2.2443 	0 8.51221 	2.16311 	0 8.42487 	2.14738 	0 8.30214 	2.12559 	0 8.30117 	1.9821 	0 8.28715 	1.83798 	0 8.21181 	1.72569 	0 8.035 	1.67507 	0 7.86306 	1.62575 	0 7.68323 	1.56759 	0 7.50177 	1.50875 	0 7.42793 	1.45839 	0 7.36148 	1.40771 	0 7.27865 	1.34671 	0 7.22249 	1.32376 	0 7.16614 	1.3007 	0 7.10958 	1.27753 	0 7.07928 	1.2544 	0 7.05291 	1.23121 	0 6.97394 	1.13838 	0 6.88841 	1.05226 	0 6.79883 	0.980328 	0 6.71191 	0.932082 	0 6.6228 	0.883658 	0 6.55089 	0.833774 	0 6.49229 	0.787587 	0 6.44246 	0.743854 	0 6.3887 	0.69909 	0 6.31694 	0.642265 	0 6.31477 	0.64017 	0 6.3132 	0.638345 	0 6.31172 	0.636559 	0 6.31023 	0.63477 	0 6.30868 	0.632931 	0 6.27132 	0.597061 	0 6.23151 	0.560862 	0 6.18922 	0.524331 	0 6.1444 	0.487462 	0 6.10943 	0.456251 	0 6.07602 	0.420969 	0 6.04571 	0.390994 	0 6.01701 	0.36455 	0 5.99443 	0.339599 	0 5.97316 	0.315195 	0 5.95246 	0.289061 	0 5.92972 	0.262718 	0 5.91348 	0.241657 	0 5.9034 	0.222652 	0 5.89182 	0.203585 	0 5.87917 	0.183518 	0 5.86498 	0.163352 	0 5.85627 	0.143787 	0 5.85337 	0.127399 	0 5.84919 	0.110983 	0 5.84297 	0.094348 	0 5.8355 	0.0776715 	0 5.83341 	0.0589691 	0 5.83631 	0.043095 	0 5.838 	0.0272214 	0 5.83717 	0.0119236 	0 5.83535 	-0.00344322 	0 5.83921 	-0.0225448 	0 5.84732 	-0.0400365 	0 5.85425 	-0.0574741 	0 5.85861 	-0.0735413 	0 5.86185 	-0.0895825 	0 5.87122 	-0.110971 	0 5.88468 	-0.132509 	0 5.89665 	-0.153976 	0 5.9065 	-0.173342 	0 5.91507 	-0.19264 	0 5.9294 	-0.218099 	0 5.94828 	-0.247055 	0 5.96527 	-0.275872 	0 5.98121 	-0.302104 	0 5.99551 	-0.328187 	0 6.01455 	-0.359802 	0 6.03865 	-0.400966 	0 6.06025 	-0.441887 	0 6.08259 	-0.480351 	0 6.1048 	-0.520974 	0 6.1301 	-0.567631 	0 6.15458 	-0.619704 	0 6.17871 	-0.679515 	0 6.20609 	-0.73851 	0 6.23744 	-0.811902 	0 6.26491 	-0.884759 	0 6.28856 	-0.957077 	0 6.30867 	-1.02979 	0 6.30869 	-1.02984 	0 6.3087 	-1.0299 	0 6.30872 	-1.02997 	0 6.30874 	-1.03003 	0 6.30875 	-1.03009 	0 6.33254 	-1.12727 	0 6.35108 	-1.22235 	0 6.3645 	-1.31536 	0 6.37525 	-1.41405 	0 6.38853 	-1.53824 	0 6.40633 	-1.66399 	0 6.41789 	-1.78764 	0 6.40577 	-1.93016 	2.6207e-20 6.3694 	-2.07912 	5.37243e-20 6.31925 	-2.2339 	8.12265e-20 6.31104 	-2.28435 	2.33769e-20 6.29885 	-2.33168 	5.82789e-21 6.28249 	-2.3757 	3.12572e-20 6.26557 	-2.41947 	5.7307e-20 6.25123 	-2.45516 	7.91851e-20 6.22484 	-2.55101 	1.78952e-19 6.1965 	-2.64631 	2.82879e-19 6.16622 	-2.74102 	3.90941e-19 6.12006 	-2.82216 	2.74315e-19 6.06352 	-2.9025 	6.24844e-20 5.98356 	-3.02217 	4.92678e-20 5.89839 	-3.13886 	3.61834e-20 5.80153 	-3.2367 	8.5674e-21 5.70026 	-3.33261 	-1.80489e-20 5.62535 	-3.39916 	-3.61872e-20 5.61621 	-3.40846 	-3.59794e-20 5.60703 	-3.41775 	-3.57566e-20 5.59778 	-3.4264 	-3.69067e-20 5.5884 	-3.43335 	-4.17109e-20 5.57887 	-3.44037 	-4.65608e-20 5.45898 	-3.53658 	-2.82924e-20 5.33377 	-3.63083 	-9.45115e-21 5.20773 	-3.70778 	1.24745e-22 5.0815 	-3.76667 	-1.88425e-22 4.9325 	-3.83198 	7.37554e-23 4.93225 	-3.83212 	4.22065e-23 4.932 	-3.83226 	1.06573e-23 4.93177 	-3.83236 	1.87091e-23 4.93155 	-3.83243 	4.69621e-23 4.93132 	-3.83251 	7.52242e-23 4.80561 	-3.88185 	1.12854e-21 4.67581 	-3.92959 	2.48628e-21 4.54888 	-3.96609 	4.2142e-21 4.43125 	-3.98318 	6.33933e-21 4.33593 	-3.99555 	8.21006e-21 4.3056 	-4.00321 	1.33561e-20 4.27505 	-4.0108 	1.85402e-20 4.24974 	-4.01251 	9.22093e-21 4.22457 	-4.01387 	-8.27736e-22 4.19828 	-4.01522 	-1.12463e-20 4.12447 	-4.02253 	-6.36209e-20 4.04947 	-4.02932 	-1.15627e-19 3.97345 	-4.03543 	-1.65819e-19 3.90928 	-4.0299 	-1.01573e-19 3.85047 	-4.02452 	-4.305e-20 3.77289 	-4.02666 	4.17211e-21 3.69542 	-4.02592 	4.19895e-20 3.62353 	-4.0138 	3.41916e-20 3.55057 	-4.00121 	2.66645e-20 3.46853 	-3.98672 	1.86374e-20 3.46519 	-3.9863 	1.92633e-20 3.46185 	-3.98588 	1.98893e-20 3.4585 	-3.98546 	2.05156e-20 3.45535 	-3.98474 	2.10411e-20 3.45228 	-3.9839 	2.15252e-20 3.38415 	-3.97188 	1.41254e-20 3.31396 	-3.95772 	7.41715e-21 3.24256 	-3.94287 	7.03563e-22 3.17077 	-3.91581 	6.16902e-21 3.10314 	-3.88904 	1.23524e-20 3.06105 	-3.87903 	3.47247e-20 3.01866 	-3.86764 	5.06247e-20 2.97706 	-3.84867 	2.33619e-20 2.93505 	-3.82948 	-3.84397e-21 2.88985 	-3.80879 	-3.27716e-20 2.87172 	-3.80223 	-3.88769e-20 2.85351 	-3.79562 	-4.49845e-20 2.83522 	-3.78897 	-5.10943e-20 2.81702 	-3.7799 	-5.72895e-20 2.79909 	-3.77038 	-6.34033e-20 2.74569 	-3.74932 	-1.07129e-19 2.69146 	-3.72776 	-1.50975e-19 2.63667 	-3.69712 	-1.46193e-19 2.58225 	-3.65974 	-8.81866e-20 2.52972 	-3.62364 	-3.27078e-20 2.5128 	-3.61471 	2.0587e-21 2.49583 	-3.60559 	3.5223e-20 2.47996 	-3.59319 	2.99694e-20 2.46402 	-3.58075 	2.47509e-20 2.4476 	-3.56794 	1.94323e-20 2.41706 	-3.54886 	5.65493e-20 2.38626 	-3.52958 	9.35867e-20 2.35521 	-3.5101 	1.30542e-19 2.32521 	-3.48559 	1.0345e-19 2.29581 	-3.46115 	7.22984e-20 2.25888 	-3.43546 	4.24494e-20 2.2215 	-3.40945 	1.2568e-20 2.18693 	-3.37659 	-2.89795e-21 2.15213 	-3.34339 	-1.81026e-20 2.115 	-3.30806 	-3.42066e-20 2.11129 	-3.3052 	-3.17823e-20 2.10757 	-3.30234 	-2.93608e-20 2.10386 	-3.29947 	-2.69421e-20 2.10035 	-3.29604 	-3.39954e-20 2.09687 	-3.2926 	-4.13456e-20 2.06015 	-3.26031 	-1.64609e-19 2.02442 	-3.22598 	-2.56598e-19 1.98937 	-3.18988 	-2.99654e-19 1.95714 	-3.14899 	-1.93318e-19 1.92537 	-3.10876 	-8.89845e-20 1.91677 	-3.09908 	-7.78944e-20 1.90815 	-3.08938 	-6.68e-20 1.90081 	-3.07854 	-5.65296e-20 1.89378 	-3.06743 	-4.64498e-20 1.88669 	-3.05624 	-3.62943e-20 1.86475 	-3.03086 	-1.17543e-20 1.84271 	-3.00538 	1.2807e-20 1.82112 	-2.97922 	2.99836e-20 1.80209 	-2.95024 	1.21481e-20 1.7832 	-2.9215 	-5.52383e-21 1.76981 	-2.90254 	-2.11412e-20 1.75638 	-2.88355 	-3.67468e-20 1.74515 	-2.86326 	-1.81151e-20 1.73484 	-2.84246 	1.47149e-20 1.72455 	-2.82162 	4.76514e-20 1.71222 	-2.80443 	1.21467e-20 1.69987 	-2.78722 	-2.33078e-20 1.68815 	-2.76952 	-3.49268e-20 1.67807 	-2.75067 	1.2955e-20 1.66803 	-2.73188 	6.07055e-20 1.6547 	-2.70768 	1.97466e-19 1.6414 	-2.6835 	3.34165e-19 1.63048 	-2.65856 	2.96355e-19 1.62133 	-2.63312 	1.33609e-19 1.61241 	-2.60809 	-2.7829e-20 1.60461 	-2.59473 	-5.73825e-20 1.5968 	-2.58137 	-8.6944e-20 1.58981 	-2.56767 	-8.97902e-20 1.58393 	-2.55351 	-5.62901e-20 1.57807 	-2.53935 	-2.27632e-20 1.56808 	-2.51483 	-2.46248e-20 1.5582 	-2.49041 	-2.65261e-20 1.55027 	-2.46587 	-1.93317e-20 1.54483 	-2.44118 	-5.01476e-22 1.53976 	-2.41737 	1.77479e-20 1.53311 	-2.40288 	2.97216e-20 1.5265 	-2.38842 	4.16907e-20 1.52119 	-2.37373 	4.57225e-20 1.51683 	-2.3589 	4.40993e-20 1.51251 	-2.34403 	4.2446e-20 1.50727 	-2.3243 	2.5568e-20 1.50217 	-2.30468 	8.66435e-21 1.49813 	-2.28526 	-3.13022e-21 1.49678 	-2.26621 	-1.1184e-21 1.49568 	-2.24805 	8.14283e-22 1.48872 	-2.22754 	7.62505e-20 1.48185 	-2.20712 	1.51914e-19 1.47759 	-2.18686 	1.25782e-19 1.47425 	-2.16676 	6.78037e-20 1.47103 	-2.14648 	8.99869e-21 1.46983 	-2.13594 	-2.33672e-20 1.46868 	-2.12544 	-5.56895e-20 1.4678 	-2.11512 	-8.20167e-20 1.46933 	-2.10623 	-3.64919e-20 1.47089 	-2.09766 	7.88482e-21 1.46376 	-2.06745 	4.60794e-21 1.45693 	-2.03752 	1.31328e-21 1.45616 	-2.01095 	-2.34631e-20 1.45673 	-1.98524 	-5.17398e-20 1.45934 	-1.96227 	-7.48757e-20 1.45886 	-1.96031 	-6.85441e-20 1.45839 	-1.95836 	-6.22665e-20 1.45834 	-1.9566 	-6.70061e-20 1.4583 	-1.95485 	-7.17433e-20 1.45825 	-1.9531 	-7.64909e-20 1.45637 	-1.92817 	-2.09532e-19 1.45487 	-1.90355 	-3.4184e-19 1.45409 	-1.8795 	-4.46602e-19 1.45835 	-1.85928 	-1.91195e-19 1.46271 	-1.84091 	4.70938e-20 1.46056 	-1.82601 	1.11167e-19 1.45853 	-1.81121 	1.75027e-19 1.45945 	-1.79852 	1.42328e-19 1.46049 	-1.78595 	1.09729e-19 1.4617 	-1.77312 	7.63114e-20 1.46263 	-1.76355 	6.7383e-20 1.46363 	-1.75405 	5.84766e-20 1.46472 	-1.74462 	4.95924e-20 1.46733 	-1.73643 	5.16657e-20 1.47 	-1.72867 	5.41821e-20 1.46949 	-1.7054 	2.94919e-20 1.46932 	-1.68242 	4.73979e-21 1.47224 	-1.66186 	2.02421e-20 1.47684 	-1.6424 	4.53282e-20 1.48278 	-1.62529 	6.85591e-20 1.48276 	-1.62123 	6.74417e-20 1.48285 	-1.61723 	6.76055e-20 1.48343 	-1.61362 	7.51568e-20 1.48404 	-1.61001 	8.27062e-20 1.48466 	-1.60637 	9.03436e-20 1.48737 	-1.59063 	1.39731e-19 1.49034 	-1.57508 	1.88996e-19 1.49358 	-1.55974 	2.38135e-19 1.49876 	-1.54624 	1.68535e-19 1.50417 	-1.53406 	8.22378e-20 1.50583 	-1.51457 	1.55584e-19 1.50833 	-1.49581 	2.03678e-19 1.51295 	-1.47899 	1.61834e-19 1.51792 	-1.46244 	1.2052e-19 1.52362 	-1.44494 	7.67429e-20 1.52364 	-1.44487 	7.64893e-20 1.52367 	-1.44481 	7.62358e-20 1.52369 	-1.44474 	7.59822e-20 1.52372 	-1.44467 	7.63193e-20 1.52376 	-1.44461 	7.69151e-20 1.52816 	-1.42759 	1.26607e-19 1.53296 	-1.41084 	1.74651e-19 1.53814 	-1.39435 	2.22303e-19 1.54491 	-1.37963 	1.84255e-19 1.55201 	-1.36671 	1.17127e-19 1.55534 	-1.34911 	2.03154e-19 1.55955 	-1.33239 	2.39521e-19 1.5652 	-1.31725 	1.74777e-19 1.57118 	-1.30234 	1.10248e-19 1.57753 	-1.2888 	3.78351e-20 1.57776 	-1.28781 	3.75834e-20 1.57803 	-1.28687 	3.67534e-20 1.57835 	-1.28598 	3.51941e-20 1.57867 	-1.2851 	3.36344e-20 1.579 	-1.28421 	3.20657e-20 1.58422 	-1.27027 	-1.34502e-20 1.58973 	-1.25651 	-5.88869e-20 1.59555 	-1.24296 	-1.04242e-19 1.60226 	-1.23061 	-8.93462e-20 1.60931 	-1.21988 	-3.00391e-20 1.61376 	-1.20437 	-7.54241e-20 1.61852 	-1.18905 	-1.21223e-19 1.6246 	-1.17567 	-1.03761e-19 1.6319 	-1.16302 	-6.0935e-20 1.63993 	-1.15164 	3.29744e-22 1.64221 	-1.14481 	2.87852e-20 1.64482 	-1.13848 	2.8274e-20 1.64769 	-1.13253 	7.11987e-21 1.65061 	-1.12661 	-1.39835e-20 1.65374 	-1.12044 	-3.60872e-20 1.65739 	-1.11361 	-6.80275e-20 1.66112 	-1.10683 	-9.9856e-20 1.66494 	-1.10011 	-1.31572e-19 1.66898 	-1.09382 	-1.3113e-19 1.67322 	-1.08833 	-7.98815e-20 1.67837 	-1.07459 	-1.11918e-19 1.68439 	-1.06134 	-1.36141e-19 1.69173 	-1.04893 	-1.45566e-19 1.69991 	-1.03832 	-1.35237e-19 1.708 	-1.02835 	-1.25248e-19 1.71378 	-1.01485 	-2.75549e-19 1.72004 	-1.00215 	-3.5023e-19 1.72693 	-0.990711 	-2.96159e-19 1.73408 	-0.979431 	-2.42595e-19 1.74237 	-0.969354 	-1.16076e-19 1.74447 	-0.965019 	-8.25728e-20 1.74672 	-0.961135 	-8.47873e-20 1.74903 	-0.957386 	-9.66454e-20 1.75136 	-0.953653 	-1.08456e-19 1.75383 	-0.949777 	-1.20724e-19 1.7587 	-0.942416 	-1.24335e-19 1.76368 	-0.935122 	-1.27919e-19 1.76879 	-0.927895 	-1.31476e-19 1.77403 	-0.920958 	-1.29664e-19 1.77937 	-0.915189 	-1.05261e-19 1.78542 	-0.903258 	-1.32871e-19 1.79247 	-0.8919 	-1.44799e-19 1.80041 	-0.881047 	-1.43571e-19 1.80873 	-0.87198 	-1.02964e-19 1.81701 	-0.863449 	-6.09385e-20 1.82363 	-0.851758 	-1.64898e-19 1.8305 	-0.840233 	-2.66903e-19 1.83766 	-0.83054 	-2.25589e-19 1.84588 	-0.821434 	-1.27944e-19 1.85456 	-0.812989 	4.40943e-23 1.86117 	-0.802438 	1.42321e-22 1.86794 	-0.793519 	1.07725e-22 1.87491 	-0.784743 	6.91116e-23 1.88207 	-0.776067 	3.00697e-23 1.89044 	-0.766303 	-1.48685e-23 1.89082 	-0.765882 	7.18357e-22 1.89121 	-0.765461 	1.4511e-21 1.89159 	-0.76504 	2.18335e-21 1.89198 	-0.76462 	2.91512e-21 1.89235 	-0.764282 	4.27671e-22 1.89983 	-0.754827 	-2.53146e-20 1.90762 	-0.745543 	-4.71836e-20 1.91564 	-0.736371 	-6.88742e-20 1.92387 	-0.727322 	-8.98802e-20 1.93178 	-0.720334 	-3.1196e-20 1.93866 	-0.710378 	-2.11255e-20 1.94623 	-0.700861 	-1.39211e-20 1.95461 	-0.691878 	-1.04079e-20 1.96278 	-0.684607 	-1.59819e-20 1.97092 	-0.677739 	-2.2447e-20 1.97824 	-0.668032 	5.39443e-20 1.98577 	-0.658427 	1.30448e-19 1.9932 	-0.650339 	1.32359e-19 2.00151 	-0.643393 	6.57222e-20 2.00985 	-0.63665 	1.6317e-22 2.01756 	-0.627198 	9.7016e-23 2.02509 	-0.618822 	-1.11881e-20 2.03252 	-0.611281 	-3.10337e-20 2.04012 	-0.603819 	-5.08555e-20 2.04859 	-0.59718 	-6.389e-20 2.05549 	-0.589479 	-1.06436e-19 2.06201 	-0.582973 	-1.0999e-19 2.06868 	-0.576524 	-1.13603e-19 2.07547 	-0.570132 	-1.17276e-19 2.08343 	-0.562856 	-1.21561e-19 2.0842 	-0.562187 	-1.22752e-19 2.08497 	-0.561518 	-1.23943e-19 2.08574 	-0.560849 	-1.25134e-19 2.08651 	-0.560182 	-1.26323e-19 2.08721 	-0.559639 	-1.22289e-19 2.09467 	-0.552339 	-9.43195e-20 2.10237 	-0.545181 	-6.50763e-20 2.11024 	-0.538092 	-3.5871e-20 2.11828 	-0.531073 	-6.70378e-21 2.12555 	-0.525583 	1.79216e-22 2.1327 	-0.517817 	6.7486e-20 2.14053 	-0.510835 	8.6415e-20 2.14854 	-0.503943 	1.03553e-19 2.15619 	-0.497867 	8.43283e-20 2.16321 	-0.492948 	1.49011e-20 2.17059 	-0.485426 	-5.50386e-20 2.1782 	-0.478052 	-1.18757e-19 2.18627 	-0.471411 	-1.35e-19 2.19319 	-0.466546 	-6.72696e-20 2.20017 	-0.461765 	-7.24773e-23 2.20775 	-0.454485 	-3.95765e-23 2.21551 	-0.447264 	-6.8478e-24 2.22263 	-0.4414 	0 2.22947 	-0.436683 	0 2.23638 	-0.43204 	0 2.24413 	-0.425001 	0 2.2518 	-0.418283 	0 2.2583 	-0.413048 	0 2.265 	-0.408272 	-1.01462e-20 2.2718 	-0.403767 	-2.51681e-20 2.27969 	-0.396968 	-6.23254e-21 2.2866 	-0.391331 	-6.35357e-21 2.2931 	-0.386281 	-1.58194e-20 2.29972 	-0.381295 	-2.67374e-20 2.30639 	-0.376928 	-6.64789e-20 2.3141 	-0.370615 	-2.84781e-20 2.32045 	-0.365714 	-3.02675e-20 2.32692 	-0.360846 	-3.20286e-20 2.3335 	-0.356011 	-3.37618e-20 2.3401 	-0.351494 	-4.64688e-20 2.34634 	-0.346633 	-3.69151e-20 2.35195 	-0.342418 	-3.83654e-20 2.35765 	-0.338228 	-3.97942e-20 2.36344 	-0.334063 	-4.12017e-20 2.37029 	-0.329244 	-4.28147e-20 2.37081 	-0.328887 	-4.2696e-20 2.37134 	-0.32853 	-4.25775e-20 2.37186 	-0.328174 	-4.24591e-20 2.37239 	-0.327817 	-4.2341e-20 2.37285 	-0.327515 	-4.2519e-20 2.37901 	-0.322926 	-4.92176e-20 2.38527 	-0.31839 	-5.37665e-20 2.39165 	-0.313882 	-5.82385e-20 2.39813 	-0.309401 	-6.2634e-20 2.40377 	-0.305674 	-3.89653e-20 2.4101 	-0.300958 	-7.5168e-20 2.41626 	-0.296598 	-8.7301e-20 2.42253 	-0.292263 	-9.93752e-20 2.4289 	-0.287954 	-1.11391e-19 2.43354 	-0.284967 	-7.13039e-20 2.44011 	-0.280182 	-1.18588e-19 2.44615 	-0.275996 	-1.21114e-19 2.4523 	-0.271832 	-1.23594e-19 2.45819 	-0.267927 	-1.18999e-19 2.46216 	-0.265363 	-7.53449e-20 2.46877 	-0.260747 	-1.17873e-19 2.47494 	-0.256541 	-1.28017e-19 2.48094 	-0.252546 	-1.22412e-19 2.48588 	-0.249284 	-9.48003e-20 2.48961 	-0.246826 	-4.31992e-20 2.4962 	-0.242413 	4.31576e-20 2.50259 	-0.238192 	1.03863e-19 2.50843 	-0.234363 	1.09358e-19 2.51241 	-0.231674 	5.03692e-20 2.51589 	-0.229319 	-2.6696e-20 2.52243 	-0.225105 	-1.75926e-20 2.52908 	-0.22091 	-8.49917e-21 2.53459 	-0.217326 	8.66909e-21 2.53777 	-0.215058 	2.59573e-20 2.54101 	-0.212804 	4.32204e-20 2.54749 	-0.208785 	-4.33233e-20 2.55407 	-0.204783 	-1.2988e-19 2.55905 	-0.201562 	-1.41243e-19 2.56198 	-0.199395 	-7.1082e-20 2.56495 	-0.197239 	-1.01961e-21 2.57135 	-0.193412 	-1.06053e-22 2.57785 	-0.1896 	7.86706e-22 2.58236 	-0.186714 	-1.56695e-20 2.58502 	-0.184646 	-4.94159e-20 2.58772 	-0.182587 	-8.31373e-20 2.59404 	-0.178946 	-4.76819e-20 2.60045 	-0.175319 	-1.22423e-20 2.60452 	-0.172743 	-8.54658e-21 2.60691 	-0.170771 	-2.59301e-20 2.60935 	-0.168806 	-4.32978e-20 2.61556 	-0.165349 	-2.59874e-20 2.62187 	-0.161905 	-8.71065e-21 2.62548 	-0.159627 	-9.45505e-21 2.62767 	-0.157731 	-2.60535e-20 2.62984 	-0.155859 	-4.33787e-20 2.63595 	-0.152579 	-1.64885e-19 2.64159 	-0.149525 	-2.61787e-19 2.64504 	-0.147366 	-2.57097e-19 2.6473 	-0.145487 	-1.64747e-19 2.6492 	-0.143706 	-4.33592e-20 2.6552 	-0.140599 	-2.59814e-20 2.6602 	-0.137892 	-8.62106e-21 2.66348 	-0.135848 	8.70883e-21 2.66583 	-0.134002 	2.1308e-20 2.66747 	-0.132309 	3.02499e-20 2.67334 	-0.129371 	9.1318e-20 2.67773 	-0.126973 	1.1869e-19 2.68085 	-0.125041 	1.17017e-19 2.68329 	-0.123239 	9.21098e-20 2.68466 	-0.121632 	3.16739e-20 2.6904 	-0.118857 	2.32319e-20 2.69421 	-0.116735 	1.48062e-20 2.69715 	-0.114911 	6.38558e-21 2.69969 	-0.113162 	0 2.70081 	-0.111639 	0 2.70641 	-0.109023 	0 2.70966 	-0.107145 	1.47193e-20 2.71244 	-0.105425 	3.25496e-20 2.71506 	-0.103738 	5.03648e-20 2.71593 	-0.102297 	6.81066e-20 2.7214 	-0.0998339 	1.90103e-19 2.72412 	-0.0981714 	1.9362e-19 2.72674 	-0.0965532 	1.91093e-19 2.7294 	-0.0949381 	1.88616e-19 2.73007 	-0.0935708 	7.02133e-20 2.73521 	-0.091308 	5.31993e-20 2.73762 	-0.0897844 	3.62384e-20 2.74008 	-0.0882636 	1.92693e-20 2.74258 	-0.0867456 	2.29208e-21 2.74326 	-0.0854297 	1.46994e-20 2.74795 	-0.0833836 	-4.34201e-24 2.7502 	-0.0819543 	-2.98879e-23 2.7525 	-0.0805274 	-5.54235e-23 2.75484 	-0.0791028 	-8.09491e-23 2.75552 	-0.0778426 	6.38963e-21 2.75979 	-0.0759915 	-5.08106e-20 2.76189 	-0.0746529 	-4.95114e-20 2.76403 	-0.0733163 	-4.82398e-20 2.76621 	-0.0719817 	-4.69955e-20 2.7669 	-0.0707802 	-5.64424e-21 2.77077 	-0.0691046 	8.55951e-23 2.77273 	-0.067853 	6.0489e-23 2.77472 	-0.0666031 	3.53731e-23 2.77675 	-0.0653551 	1.02475e-23 2.77743 	-0.0642142 	0 2.78093 	-0.0626967 	1.11894e-20 2.78275 	-0.0615285 	3.75127e-20 2.7846 	-0.0603619 	6.38273e-20 2.78648 	-0.0591967 	9.01332e-20 2.78715 	-0.0581178 	1.07495e-19 2.79032 	-0.0567425 	1.73101e-19 2.79199 	-0.0556543 	1.72023e-19 2.7937 	-0.0545673 	1.70972e-19 2.79544 	-0.0534816 	1.69949e-19 2.7961 	-0.0524651 	1.02484e-19 2.79895 	-0.051218 	8.75803e-20 2.8005 	-0.0502061 	5.31468e-20 2.80207 	-0.0491953 	1.8708e-20 2.80367 	-0.0481857 	-1.57363e-20 2.80431 	-0.0472313 	-4.66902e-20 2.80688 	-0.0460999 	-9.0213e-20 2.8083 	-0.0451609 	-8.9005e-20 2.80974 	-0.0442228 	-8.78309e-20 2.81121 	-0.0432857 	-8.66905e-20 2.81182 	-0.0423928 	-3.70497e-20 2.81414 	-0.0413659 	-4.95367e-20 2.81543 	-0.0404964 	-3.17161e-20 2.81675 	-0.0396276 	-1.39133e-20 2.8181 	-0.0387596 	3.8717e-21 2.81868 	-0.0379269 	4.31038e-20 2.82076 	-0.0369947 	4.98617e-20 2.82194 	-0.0361912 	6.73327e-20 2.82314 	-0.0353883 	8.47954e-20 2.82437 	-0.034586 	1.0225e-19 2.82491 	-0.0338121 	1.22065e-19 2.82678 	-0.0329657 	1.46229e-19 2.82785 	-0.0322248 	1.37006e-19 2.82895 	-0.0314844 	1.27805e-19 2.83006 	-0.0307446 	1.18625e-19 2.83055 	-0.0300277 	8.16882e-20 2.83224 	-0.0292591 	5.80646e-20 2.83321 	-0.0285776 	3.23165e-20 2.8342 	-0.0278966 	6.56652e-21 2.83521 	-0.0272159 	-1.91853e-20 2.83565 	-0.0265539 	-4.10463e-20 2.83717 	-0.0258562 	-5.61655e-20 2.83804 	-0.0252308 	-3.83915e-20 2.83894 	-0.0246058 	-2.06436e-20 2.83985 	-0.0239812 	-2.9217e-21 2.84023 	-0.0233718 	4.84829e-20 2.84161 	-0.0227387 	1.02321e-19 2.84239 	-0.0221663 	1.10001e-19 2.84319 	-0.0215943 	1.17725e-19 2.84401 	-0.0210225 	1.25492e-19 2.84433 	-0.0204634 	8.86216e-20 2.84558 	-0.0198893 	7.17987e-20 2.84628 	-0.0193669 	6.3255e-20 2.84699 	-0.0188447 	5.47072e-20 2.84773 	-0.0183228 	4.61554e-20 2.84798 	-0.0178115 	3.76061e-20 2.84912 	-0.0172913 	1.44083e-20 2.84974 	-0.0168158 	1.4756e-20 2.85038 	-0.0163405 	1.50812e-20 2.85103 	-0.0158655 	1.53837e-20 2.85121 	-0.0153994 	4.14744e-20 2.85227 	-0.0149287 	3.98576e-20 2.85