# vtk DataFile Version 2.0
track0
ASCII
DATASET POLYDATA
POINTS 12278 float
-0.0205 0.001 1e-05
-0.02052 0.000999216 1e-05
-0.02054 0.000998592 1e-05
-0.02056 0.000998126 1e-05
-0.02058 0.000997818 1e-05
-0.0206 0.000997665 1e-05
-0.0205 0.00367778 1e-05
-0.02052 0.00367703 1e-05
-0.02054 0.00367643 1e-05
-0.02056 0.00367599 1e-05
-0.02058 0.00367569 1e-05
-0.0206 0.00367554 1e-05
-0.0205 0.00635556 1e-05
-0.02052 0.00635527 1e-05
-0.02054 0.00635505 1e-05
-0.02056 0.00635488 1e-05
-0.02058 0.00635476 1e-05
-0.0206 0.00635471 1e-05
-0.0205 0.00903333 1e-05
-0.02052 0.00903311 1e-05
-0.02054 0.00903293 1e-05
-0.02056 0.0090328 1e-05
-0.02058 0.00903271 1e-05
-0.0206 0.00903266 1e-05
-0.0205 0.0117111 1e-05
-0.02052 0.0117111 1e-05
-0.02054 0.011711 1e-05
-0.02056 0.011711 1e-05
-0.02058 0.011711 1e-05
-0.0206 0.011711 1e-05
-0.0205 0.0143889 1e-05
-0.02052 0.014389 1e-05
-0.02054 0.014389 1e-05
-0.02056 0.0143891 1e-05
-0.02058 0.0143891 1e-05
-0.0206 0.0143891 1e-05
-0.0205 0.0170667 1e-05
-0.02052 0.017067 1e-05
-0.02054 0.0170672 1e-05
-0.02056 0.0170674 1e-05
-0.02058 0.0170675 1e-05
-0.0206 0.0170676 1e-05
-0.0205 0.0197444 1e-05
-0.02052 0.019745 1e-05
-0.02054 0.0197454 1e-05
-0.02056 0.0197457 1e-05
-0.02058 0.0197459 1e-05
-0.0206 0.019746 1e-05
-0.0205 0.0224222 1e-05
-0.02052 0.022423 1e-05
-0.02054 0.0224236 1e-05
-0.02056 0.0224241 1e-05
-0.02058 0.0224244 1e-05
-0.0206 0.0224245 1e-05
-0.0205 0.0251 1e-05
-0.02052 0.0251003 1e-05
-0.02054 0.0251005 1e-05
-0.02056 0.0251007 1e-05
-0.02058 0.0251008 1e-05
-0.0206 0.0251008 1e-05
-0.0205 0.001 1e-05
-0.0203632 0.00100536 1e-05
-0.0202266 0.00101331 1e-05
-0.0200901 0.00102296 1e-05
-0.0200427 0.00102682 1e-05
-0.0198376 0.00104418 1e-05
-0.0196338 0.00107322 1e-05
-0.0194327 0.00111734 1e-05
-0.0192368 0.00118024 1e-05
-0.0190172 0.00124951 1e-05
-0.0189002 0.00128348 1e-05
-0.0187827 0.00131598 1e-05
-0.0186649 0.001347 1e-05
-0.0185469 0.001377 1e-05
-0.0183807 0.00141936 1e-05
-0.0182041 0.00146458 1e-05
-0.0180267 0.00150692 1e-05
-0.0178487 0.0015464 1e-05
-0.0176703 0.00158389 1e-05
-0.0174976 0.00161991 1e-05
-0.0172846 0.00166394 1e-05
-0.0170715 0.00170741 1e-05
-0.0168583 0.00175029 1e-05
-0.0166449 0.00179219 1e-05
-0.0163945 0.00184007 1e-05
-0.0163234 0.00185324 1e-05
-0.0162522 0.00186629 1e-05
-0.016181 0.00187921 1e-05
-0.0161097 0.00189201 1e-05
-0.0160387 0.0019046 1e-05
-0.0157586 0.0019535 1e-05
-0.0154779 0.00199931 1e-05
-0.0151968 0.00204225 1e-05
-0.0149154 0.00208283 1e-05
-0.0146381 0.00212134 1e-05
-0.0143838 0.00215527 1e-05
-0.0141293 0.00218766 1e-05
-0.0138747 0.00221855 1e-05
-0.0136198 0.00224797 1e-05
-0.0132934 0.00228369 1e-05
-0.0132791 0.00228515 1e-05
-0.0132648 0.0022866 1e-05
-0.0132504 0.00228805 1e-05
-0.0132361 0.0022895 1e-05
-0.0132214 0.00229098 1e-05
-0.0129776 0.00231543 1e-05
-0.0127337 0.00233865 1e-05
-0.0124897 0.00236061 1e-05
-0.0122456 0.0023813 1e-05
-0.0120025 0.00240058 1e-05
-0.0117547 0.00241909 1e-05
-0.0115067 0.00243627 1e-05
-0.0112587 0.00245231 1e-05
-0.0110106 0.00246734 1e-05
-0.0107632 0.00248136 1e-05
-0.0105252 0.00249391 1e-05
-0.0102872 0.00250547 1e-05
-0.0100491 0.00251602 1e-05
-0.00981105 0.00252575 1e-05
-0.00957337 0.00253472 1e-05
-0.00934491 0.00254261 1e-05
-0.00911643 0.00254974 1e-05
-0.00888792 0.00255611 1e-05
-0.0086594 0.00256172 1e-05
-0.00843108 0.00256669 1e-05
-0.00821175 0.00257085 1e-05
-0.00799241 0.00257439 1e-05
-0.00777306 0.00257731 1e-05
-0.0075537 0.00257953 1e-05
-0.00733443 0.00258115 1e-05
-0.00712387 0.00258213 1e-05
-0.0069133 0.00258256 1e-05
-0.00670273 0.00258244 1e-05
-0.00649216 0.00258163 1e-05
-0.0062816 0.00258019 1e-05
-0.00607944 0.0025782 1e-05
-0.0058773 0.00257567 1e-05
-0.00567516 0.00257258 1e-05
-0.00547303 0.00256876 1e-05
-0.00527083 0.00256421 1e-05
-0.00507675 0.00255914 1e-05
-0.00488269 0.00255345 1e-05
-0.00468865 0.00254713 1e-05
-0.00449464 0.00253999 1e-05
-0.00430044 0.00253193 1e-05
-0.00411412 0.00252331 1e-05
-0.00392784 0.0025139 1e-05
-0.00374159 0.00250371 1e-05
-0.0035554 0.00249257 1e-05
-0.00336883 0.00248018 1e-05
-0.00318995 0.00246714 1e-05
-0.00301115 0.00245302 1e-05
-0.00283245 0.00243777 1e-05
-0.00265386 0.00242124 1e-05
-0.00247443 0.00240317 1e-05
-0.0023027 0.00238429 1e-05
-0.00213114 0.00236388 1e-05
-0.00195982 0.00234158 1e-05
-0.00178875 0.00231742 1e-05
-0.00161577 0.00229109 1e-05
-0.00161563 0.00229107 1e-05
-0.00161549 0.00229105 1e-05
-0.00161534 0.00229102 1e-05
-0.0016152 0.002291 1e-05
-0.00161506 0.00229098 1e-05
-0.00145033 0.00226408 1e-05
-0.001286 0.00223482 1e-05
-0.0011221 0.00220328 1e-05
-0.000958647 0.0021695 1e-05
-0.000791418 0.00213241 1e-05
-0.000633135 0.0020943 1e-05
-0.000475556 0.00205337 1e-05
-0.000318719 0.00200969 1e-05
-0.000162834 0.00196272 1e-05
0 0.00190957 1e-05
3.73686e-05 0.00189636 1e-05
7.46371e-05 0.00188287 1e-05
0.000111807 0.00186911 1e-05
0.000148879 0.00185509 1e-05
0.000179207 0.00184338 1e-05
0.000249043 0.00181595 1e-05
0.000318468 0.0017875 1e-05
0.000387469 0.00175803 1e-05
0.00045603 0.00172755 1e-05
0.000528387 0.00169419 1e-05
0.000634886 0.00164321 1e-05
0.000740278 0.00158998 1e-05
0.00084451 0.00153452 1e-05
0.000947621 0.00147699 1e-05
0.00101999 0.00143469 1e-05
0.00102817 0.00142974 1e-05
0.00103634 0.00142479 1e-05
0.0010445 0.00141981 1e-05
0.00105265 0.00141482 1e-05
0.00106088 0.00140976 1e-05
0.00116821 0.00134358 1e-05
0.00127404 0.00127503 1e-05
0.00137827 0.00120407 1e-05
0.00148099 0.00113094 1e-05
0.00159679 0.00104511 1e-05
0.00159694 0.001045 1e-05
0.00159708 0.00104488 1e-05
0.00159723 0.00104477 1e-05
0.00159737 0.00104466 1e-05
0.00159752 0.00104455 1e-05
0.00169221 0.000970961 1e-05
0.00178549 0.00089561 1e-05
0.0018773 0.000818459 1e-05
0.00196768 0.000739652 1e-05
0.00203809 0.000676368 1e-05
0.00205814 0.000657894 1e-05
0.0020781 0.000639332 1e-05
0.00209798 0.00062068 1e-05
0.0021178 0.000601965 1e-05
0.00213833 0.000582468 1e-05
0.00219148 0.000531633 1e-05
0.00224414 0.000480281 1e-05
0.00229627 0.000428404 1e-05
0.00234788 0.000375996 1e-05
0.00239419 0.000328255 1e-05
0.00245202 0.000267812 1e-05
0.00250922 0.00020677 1e-05
0.00256578 0.000145145 1e-05
0.00262184 8.30537e-05 1e-05
0.00268334 1.37538e-05 1e-05
0.00268573 1.1003e-05 1e-05
0.00268812 8.25124e-06 1e-05
0.00269051 5.49842e-06 1e-05
0.0026929 2.74458e-06 1e-05
0.00269528 0 1e-05
0.00275918 -7.37368e-05 1e-05
0.00282246 -0.000148005 1e-05
0.0028851 -0.000222813 1e-05
0.00294708 -0.000298173 1e-05
0.00300415 -0.000368654 1e-05
0.00304983 -0.000425913 1e-05
0.00309521 -0.000483418 1e-05
0.00314028 -0.000541164 1e-05
0.0031851 -0.000599105 1e-05
0.00323259 -0.000661057 1e-05
0.00325065 -0.000684865 1e-05
0.00326866 -0.000708712 1e-05
0.00328662 -0.000732599 1e-05
0.00330453 -0.000756527 1e-05
0.00332209 -0.00078009 1e-05
0.00339023 -0.000871878 1e-05
0.00345777 -0.000964108 1e-05
0.00352469 -0.00105679 1e-05
0.00359106 -0.00114986 1e-05
0.00365392 -0.00123896 1e-05
0.00368036 -0.00127683 1e-05
0.00370672 -0.00131475 1e-05
0.00373301 -0.00135272 1e-05
0.00375924 -0.00139073 1e-05
0.00378611 -0.00142977 1e-05
0.00383011 -0.00149391 1e-05
0.00387389 -0.0015582 1e-05
0.00391745 -0.00162263 1e-05
0.00396079 -0.00168722 1e-05
0.00400296 -0.00175044 1e-05
0.00407115 -0.00185325 1e-05
0.00413893 -0.00195634 1e-05
0.00420628 -0.00205971 1e-05
0.00427335 -0.00216326 1e-05
0.00434393 -0.00227291 1e-05
0.00434999 -0.00228239 1e-05
0.00435605 -0.00229187 1e-05
0.0043621 -0.00230135 1e-05
0.00436815 -0.00231084 1e-05
0.00437417 -0.0023203 1e-05
0.00445502 -0.00244725 1e-05
0.00453541 -0.00257449 1e-05
0.00461541 -0.00270197 1e-05
0.00469505 -0.00282968 1e-05
0.00477292 -0.00295498 1e-05
0.00479955 -0.00299798 1e-05
0.00482616 -0.00304101 1e-05
0.00485274 -0.00308405 1e-05
0.00487932 -0.00312709 1e-05
0.00490609 -0.00317046 1e-05
0.00496673 -0.0032687 1e-05
0.00502722 -0.00336702 1e-05
0.00508756 -0.00346544 1e-05
0.00514776 -0.00356394 1e-05
0.00520742 -0.00366161 1e-05
0.00526046 -0.00374851 1e-05
0.00531346 -0.00383545 1e-05
0.00536642 -0.0039224 1e-05
0.0054194 -0.00400934 1e-05
0.00547262 -0.00409655 1e-05
0.00551559 -0.00416686 1e-05
0.00555853 -0.0042372 1e-05
0.00560143 -0.00430755 1e-05
0.00564432 -0.00437792 1e-05
0.00568714 -0.00444811 1e-05
0.00575842 -0.00456487 1e-05
0.00582975 -0.0046816 1e-05
0.00590113 -0.00479831 1e-05
0.00597264 -0.00491493 1e-05
0.00604356 -0.00503011 1e-05
0.0060798 -0.00508874 1e-05
0.00611605 -0.00514737 1e-05
0.0061523 -0.00520598 1e-05
0.00618858 -0.00526459 1e-05
0.00622497 -0.00532326 1e-05
0.00630376 -0.00545006 1e-05
0.00638275 -0.00557675 1e-05
0.00646192 -0.00570331 1e-05
0.00654137 -0.0058297 1e-05
0.00661893 -0.00595228 1e-05
0.0066628 -0.00602116 1e-05
0.00670672 -0.00609001 1e-05
0.0067507 -0.00615883 1e-05
0.00679476 -0.00622759 1e-05
0.0068392 -0.00629671 1e-05
0.00691111 -0.00640818 1e-05
0.00698328 -0.00651949 1e-05
0.00705571 -0.00663063 1e-05
0.00712843 -0.00674157 1e-05
0.00719878 -0.0068481 1e-05
0.00726942 -0.00695428 1e-05
0.00734028 -0.00706032 1e-05
0.00741136 -0.00716621 1e-05
0.00748275 -0.00727189 1e-05
0.00755567 -0.00737909 1e-05
0.00760117 -0.00744548 1e-05
0.00764678 -0.00751178 1e-05
0.00769253 -0.007578 1e-05
0.00773841 -0.00764412 1e-05
0.00778313 -0.00770824 1e-05
0.00790091 -0.00787623 1e-05
0.00801946 -0.00804369 1e-05
0.00813878 -0.00821058 1e-05
0.0082591 -0.00837677 1e-05
0.00837203 -0.00853069 1e-05
0.00837965 -0.00854093 1e-05
0.00838726 -0.00855117 1e-05
0.00839488 -0.0085614 1e-05
0.00840251 -0.00857163 1e-05
0.00841015 -0.00858189 1e-05
0.00852123 -0.00873068 1e-05
0.00863312 -0.00887885 1e-05
0.00874586 -0.00902638 1e-05
0.00885947 -0.00917324 1e-05
0.00896551 -0.00930846 1e-05
0.00903 -0.00938963 1e-05
0.00909475 -0.00947059 1e-05
0.00915977 -0.00955134 1e-05
0.00922508 -0.00963185 1e-05
0.00929256 -0.00971438 1e-05
0.00934677 -0.00978015 1e-05
0.00940117 -0.00984575 1e-05
0.00945577 -0.0099112 1e-05
0.00951057 -0.00997648 1e-05
0.0095636 -0.0100392 1e-05
0.00968415 -0.010181 1e-05
[...]
POINT_DATA 12278
 FIELD attributes 1
U 3 12278 float
9.72339 	0.381311 	0 9.77871 	0.305049 	0 9.83405 	0.228765 	0 9.8894 	0.152465 	0 9.94476 	0.0761532 	0 10 	0 	0
10.0671 	0.375483 	0 10.0537 	0.300387 	0 10.0403 	0.225271 	0 10.0268 	0.150141 	0 10.0134 	0.0750008 	0 10 	0 	0
10.0364 	0.141572 	0 10.0291 	0.113304 	0 10.0218 	0.085089 	0 10.0145 	0.0569263 	0 10.0071 	0.0288164 	0 10 	0 	0
10.0137 	0.111519 	0 10.011 	0.0892152 	0 10.0082 	0.0669109 	0 10.0055 	0.0446062 	0 10.0027 	0.0223013 	0 10 	0 	0
10.0097 	0.0196536 	0 10.0078 	0.0157229 	0 10.0058 	0.0117922 	0 10.0039 	0.00786144 	0 10.0019 	0.00393071 	0 10 	0 	0
10.0102 	-0.0372873 	0 10.0082 	-0.0298298 	0 10.0061 	-0.0223723 	0 10.0041 	-0.0149149 	0 10.002 	-0.00745736 	0 10 	0 	0
10.0174 	-0.148996 	0 10.0139 	-0.119197 	0 10.0105 	-0.0893967 	0 10.007 	-0.0595953 	0 10.0035 	-0.0297932 	0 10 	0 	0
10.0362 	-0.265901 	0 10.029 	-0.212721 	0 10.0217 	-0.159534 	0 10.0145 	-0.106342 	0 10.0072 	-0.053146 	0 10 	0 	0
10.0563 	-0.387167 	0 10.045 	-0.309734 	0 10.0338 	-0.23228 	0 10.0225 	-0.15481 	0 10.0112 	-0.0773282 	0 10 	0 	0
8.30133 	-0.114495 	0 8.4287 	-0.091596 	0 8.55659 	-0.0686962 	0 8.68498 	-0.0457957 	0 8.81385 	-0.0228949 	0 8.94315 	0 	0
9.72339 	0.381311 	0 9.5415 	0.555241 	0 9.39671 	0.663651 	0 9.26203 	0.754271 	0 9.2183 	0.780385 	0 8.95344 	1.27614 	0 8.70578 	1.91036 	0 8.48173 	2.72184 	0 8.46724 	2.67123 	0 8.47252 	2.45986 	0 8.50117 	2.35314 	0 8.52498 	2.2443 	0 8.51221 	2.16311 	0 8.42487 	2.14738 	0 8.30214 	2.12559 	0 8.30117 	1.9821 	0 8.28715 	1.83798 	0 8.21181 	1.72569 	0 8.035 	1.67507 	0 7.86306 	1.62575 	0 7.68323 	1.56759 	0 7.50177 	1.50875 	0 7.42793 	1.45839 	0 7.36148 	1.40771 	0 7.27865 	1.34671 	0 7.22249 	1.32376 	0 7.16614 	1.3007 	0 7.10958 	1.27753 	0 7.07928 	1.2544 	0 7.05291 	1.23121 	0 6.97394 	1.13838 	0 6.88841 	1.05226 	0 6.79883 	0.980329 	0 6.71191 	0.932083 	0 6.6228 	0.883659 	0 6.55089 	0.833776 	0 6.49228 	0.787589 	0 6.44246 	0.743857 	0 6.3887 	0.699092 	0 6.31694 	0.642267 	0 6.31476 	0.640173 	0 6.3132 	0.638348 	0 6.31172 	0.636562 	0 6.31022 	0.634773 	0 6.30868 	0.632935 	0 6.27131 	0.597064 	0 6.2315 	0.560866 	0 6.18921 	0.524335 	0 6.1444 	0.487466 	0 6.10942 	0.456256 	0 6.07601 	0.420974 	0 6.0457 	0.390999 	0 6.017 	0.364555 	0 5.99442 	0.339605 	0 5.97315 	0.315201 	0 5.95245 	0.289068 	0 5.92971 	0.262725 	0 5.91347 	0.241664 	0 5.90338 	0.222661 	0 5.89181 	0.203594 	0 5.87916 	0.183528 	0 5.86497 	0.163362 	0 5.85625 	0.143798 	0 5.85335 	0.12741 	0 5.84918 	0.110995 	0 5.84295 	0.0943608 	0 5.83548 	0.077685 	0 5.83339 	0.0589832 	0 5.83629 	0.0431101 	0 5.83798 	0.0272375 	0 5.83715 	0.0119405 	0 5.83532 	-0.00342598 	0 5.83918 	-0.0225264 	0 5.84729 	-0.040017 	0 5.85422 	-0.0574534 	0 5.85858 	-0.0735196 	0 5.86182 	-0.0895598 	0 5.87118 	-0.110947 	0 5.88464 	-0.132484 	0 5.89661 	-0.153949 	0 5.90646 	-0.173315 	0 5.91503 	-0.192611 	0 5.92935 	-0.21807 	0 5.94823 	-0.247024 	0 5.96522 	-0.275838 	0 5.98116 	-0.302069 	0 5.99546 	-0.328151 	0 6.01449 	-0.359765 	0 6.03859 	-0.400926 	0 6.06019 	-0.441845 	0 6.08253 	-0.480306 	0 6.10473 	-0.520925 	0 6.13003 	-0.567579 	0 6.1545 	-0.619653 	0 6.17863 	-0.67946 	0 6.20601 	-0.738447 	0 6.23735 	-0.811835 	0 6.26482 	-0.884687 	0 6.28846 	-0.957 	0 6.30857 	-1.02971 	0 6.30859 	-1.02979 	0 6.30862 	-1.02988 	0 6.30864 	-1.02998 	0 6.30867 	-1.03008 	0 6.30869 	-1.03018 	0 6.33246 	-1.12732 	0 6.35099 	-1.22236 	0 6.36439 	-1.31534 	0 6.37513 	-1.41399 	0 6.3884 	-1.53814 	0 6.4062 	-1.66388 	0 6.41775 	-1.78753 	0 6.40564 	-1.93002 	2.61955e-20 6.36925 	-2.07898 	5.36996e-20 6.3191 	-2.23374 	8.12016e-20 6.31088 	-2.28424 	2.33033e-20 6.29869 	-2.3316 	5.74287e-21 6.28231 	-2.37566 	3.11931e-20 6.26538 	-2.41945 	5.72648e-20 6.25103 	-2.45516 	7.91582e-20 6.22464 	-2.55097 	1.78893e-19 6.19631 	-2.64623 	2.82786e-19 6.16604 	-2.74089 	3.9081e-19 6.1199 	-2.822 	2.74217e-19 6.06338 	-2.9023 	6.24634e-20 5.98342 	-3.02196 	4.92452e-20 5.89827 	-3.13865 	3.61673e-20 5.8014 	-3.23649 	8.54952e-21 5.70014 	-3.33239 	-1.80686e-20 5.62511 	-3.39906 	-3.62387e-20 5.61599 	-3.40833 	-3.60314e-20 5.60684 	-3.41759 	-3.58092e-20 5.59762 	-3.42621 	-3.69561e-20 5.58827 	-3.43314 	-4.17463e-20 5.57877 	-3.44014 	-4.65819e-20 5.45889 	-3.53634 	-2.83136e-20 5.33368 	-3.63058 	-9.47242e-21 5.20764 	-3.70755 	1.14584e-22 5.08142 	-3.76642 	-2.11682e-22 4.93228 	-3.83182 	6.28631e-23 4.93206 	-3.83194 	3.59734e-23 4.93185 	-3.83205 	9.08336e-24 4.93165 	-3.83214 	1.59462e-23 4.93146 	-3.8322 	4.00269e-23 4.93127 	-3.83226 	6.41141e-23 4.80553 	-3.88162 	1.11739e-21 4.67569 	-3.92938 	2.4753e-21 4.54874 	-3.96588 	4.20361e-21 4.43107 	-3.98299 	6.32937e-21 4.33573 	-3.99536 	8.20057e-21 4.30544 	-4.00301 	1.33402e-20 4.27493 	-4.01058 	1.85177e-20 4.24966 	-4.01229 	9.21013e-21 4.22452 	-4.01365 	-8.26032e-22 4.19827 	-4.015 	-1.12311e-20 4.12442 	-4.02232 	-6.36371e-20 4.04939 	-4.02911 	-1.15675e-19 3.97333 	-4.03522 	-1.65888e-19 3.90913 	-4.02969 	-1.01606e-19 3.85029 	-4.02431 	-4.30524e-20 3.77276 	-4.02645 	4.15004e-21 3.69532 	-4.02571 	4.19519e-20 3.62347 	-4.0136 	3.41569e-20 3.55054 	-4.00102 	2.66323e-20 3.46855 	-3.98654 	1.86081e-20 3.46517 	-3.98612 	1.92412e-20 3.46179 	-3.9857 	1.98745e-20 3.45841 	-3.98527 	2.05079e-20 3.45522 	-3.98454 	2.10395e-20 3.45212 	-3.98369 	2.15291e-20 3.384 	-3.97169 	1.41208e-20 3.31381 	-3.95754 	7.41219e-21 3.24241 	-3.94269 	6.98181e-22 3.17062 	-3.91562 	6.17448e-21 3.10299 	-3.88885 	1.23582e-20 3.06093 	-3.87885 	3.47187e-20 3.01856 	-3.86747 	5.06102e-20 2.97698 	-3.84852 	2.33618e-20 2.93501 	-3.82934 	-3.82965e-21 2.88983 	-3.80867 	-3.2741e-20 2.87168 	-3.8021 	-3.8856e-20 2.85344 	-3.79549 	-4.49731e-20 2.83512 	-3.78882 	-5.10925e-20 2.8169 	-3.77974 	-5.72974e-20 2.79894 	-3.77021 	-6.34207e-20 2.74555 	-3.74915 	-1.07149e-19 2.69132 	-3.7276 	-1.50998e-19 2.63652 	-3.69697 	-1.46192e-19 2.5821 	-3.65959 	-8.8182e-20 2.52958 	-3.62349 	-3.26999e-20 2.51267 	-3.61458 	2.03486e-21 2.49572 	-3.60546 	3.51679e-20 2.47986 	-3.59308 	2.99193e-20 2.46394 	-3.58066 	2.47057e-20 2.44754 	-3.56786 	1.93922e-20 2.41698 	-3.54877 	5.65331e-20 2.38616 	-3.52948 	9.35943e-20 2.35509 	-3.51 	1.30574e-19 2.32508 	-3.48548 	1.03465e-19 2.29565 	-3.46102 	7.22928e-20 2.25874 	-3.43534 	4.24519e-20 2.22137 	-3.40935 	1.25788e-20 2.18681 	-3.37651 	-2.88242e-21 2.15201 	-3.34332 	-1.8083e-20 2.1149 	-3.30801 	-3.41827e-20 2.11118 	-3.30514 	-3.17494e-20 2.10745 	-3.30227 	-2.9319e-20 2.10371 	-3.29939 	-2.68915e-20 2.1002 	-3.29595 	-3.39707e-20 2.0967 	-3.2925 	-4.13483e-20 2.05998 	-3.26022 	-1.64727e-19 2.02425 	-3.2259 	-2.56717e-19 1.98919 	-3.18979 	-2.99672e-19 1.95696 	-3.14891 	-1.93329e-19 1.9252 	-3.10869 	-8.89899e-20 1.9166 	-3.09901 	-7.79055e-20 1.90798 	-3.08932 	-6.68169e-20 1.90065 	-3.07849 	-5.65519e-20 1.89361 	-3.06739 	-4.64773e-20 1.88653 	-3.05621 	-3.6327e-20 1.86459 	-3.03082 	-1.17793e-20 1.84254 	-3.00534 	1.27897e-20 1.82094 	-2.97917 	2.99758e-20 1.8019 	-2.95019 	1.21362e-20 1.783 	-2.92144 	-5.53956e-21 1.76961 	-2.90249 	-2.11548e-20 1.75619 	-2.88351 	-3.67582e-20 1.74495 	-2.86322 	-1.81221e-20 1.73465 	-2.84242 	1.47056e-20 1.72435 	-2.82159 	4.76404e-20 1.71202 	-2.80439 	1.21349e-20 1.69967 	-2.78718 	-2.33203e-20 1.68795 	-2.76949 	-3.49472e-20 1.67787 	-2.75064 	1.29457e-20 1.66782 	-2.73184 	6.0707e-20 1.65449 	-2.70764 	1.97492e-19 1.64119 	-2.68346 	3.34216e-19 1.63026 	-2.65852 	2.96373e-19 1.6211 	-2.63309 	1.33622e-19 1.61219 	-2.60805 	-2.78234e-20 1.60438 	-2.59469 	-5.73678e-20 1.59658 	-2.58134 	-8.69202e-20 1.58959 	-2.56764 	-8.97729e-20 1.58371 	-2.55349 	-5.62771e-20 1.57785 	-2.53933 	-2.27547e-20 1.56786 	-2.51481 	-2.46152e-20 1.55797 	-2.49039 	-2.65155e-20 1.55003 	-2.46583 	-1.93141e-20 1.54459 	-2.44114 	-4.7714e-22 1.53952 	-2.41732 	1.77789e-20 1.53287 	-2.40284 	2.97468e-20 1.52626 	-2.38839 	4.171e-20 1.52095 	-2.37371 	4.57427e-20 1.5166 	-2.35889 	4.41211e-20 1.51228 	-2.34403 	4.24697e-20 1.50703 	-2.32428 	2.55826e-20 1.50192 	-2.30465 	8.66988e-21 1.49789 	-2.28523 	-3.1273e-21 1.49653 	-2.26617 	-1.11421e-21 1.49543 	-2.248 	8.19677e-22 1.48847 	-2.2275 	7.62042e-20 1.48161 	-2.20709 	1.51816e-19 1.47734 	-2.18685 	1.25719e-19 1.47401 	-2.16676 	6.77723e-20 1.47079 	-2.14649 	8.99983e-21 1.46958 	-2.13593 	-2.34113e-20 1.46843 	-2.12542 	-5.57788e-20 1.46755 	-2.11509 	-8.21269e-20 1.46908 	-2.10619 	-3.65458e-20 1.47064 	-2.09761 	7.88443e-21 1.46351 	-2.06739 	4.60727e-21 1.45668 	-2.03745 	1.31233e-21 1.45592 	-2.01088 	-2.34963e-20 1.45649 	-1.98518 	-5.17758e-20 1.45908 	-1.9622 	-7.4949e-20 1.45861 	-1.96026 	-6.8686e-20 1.45814 	-1.95832 	-6.24746e-20 1.45809 	-1.95659 	-6.71638e-20 1.45805 	-1.95486 	-7.18507e-20 1.458 	-1.95312 	-7.65477e-20 1.45612 	-1.92817 	-2.09723e-19 1.45461 	-1.90352 	-3.42163e-19 1.45384 	-1.87945 	-4.46945e-19 1.45809 	-1.85921 	-1.91325e-19 1.46246 	-1.84082 	4.71445e-20 1.46032 	-1.82595 	1.11109e-19 1.45829 	-1.81116 	1.74875e-19 1.45921 	-1.7985 	1.42227e-19 1.46025 	-1.78595 	1.09679e-19 1.46146 	-1.77314 	7.63157e-20 1.46238 	-1.76355 	6.73661e-20 1.46339 	-1.75402 	5.84385e-20 1.46448 	-1.74457 	4.95333e-20 1.4671 	-1.73636 	5.16132e-20 1.46977 	-1.72858 	5.41345e-20 1.46926 	-1.70531 	2.94421e-20 1.4691 	-1.68233 	4.68786e-21 1.47203 	-1.66177 	2.02966e-20 1.47661 	-1.6423 	4.53849e-20 1.48255 	-1.62519 	6.86171e-20 1.48254 	-1.62115 	6.75076e-20 1.48262 	-1.61718 	6.76695e-20 1.48321 	-1.61359 	7.51688e-20 1.4838 	-1.61001 	8.26662e-20 1.48442 	-1.60639 	9.02504e-20 1.48713 	-1.59062 	1.39721e-19 1.49011 	-1.57505 	1.8907e-19 1.49336 	-1.55968 	2.38292e-19 1.49855 	-1.54615 	1.68549e-19 1.50397 	-1.53395 	8.21223e-20 1.50563 	-1.51449 	1.5536e-19 1.50813 	-1.49576 	2.03389e-19 1.51274 	-1.47896 	1.61601e-19 1.5177 	-1.46242 	1.20343e-19 1.5234 	-1.44496 	7.66274e-20 1.52343 	-1.44486 	7.62877e-20 1.52347 	-1.44477 	7.59479e-20 1.5235 	-1.44468 	7.56082e-20 1.52354 	-1.44459 	7.60599e-20 1.52358 	-1.44451 	7.6858e-20 1.52797 	-1.42748 	1.26984e-19 1.53278 	-1.41073 	1.75032e-19 1.53797 	-1.39424 	2.22687e-19 1.54474 	-1.37952 	1.84325e-19 1.55184 	-1.3666 	1.17195e-19 1.55518 	-1.34899 	2.03226e-19 1.5594 	-1.33228 	2.3918e-19 1.56505 	-1.31714 	1.74432e-19 1.57103 	-1.30223 	1.099e-19 1.57738 	-1.28868 	3.7868e-20 1.5776 	-1.28772 	3.76243e-20 1.57786 	-1.2868 	3.68204e-20 1.57817 	-1.28595 	3.53101e-20 1.57848 	-1.28509 	3.37995e-20 1.5788 	-1.28423 	3.22804e-20 1.58403 	-1.27025 	-1.33282e-20 1.58956 	-1.25647 	-5.88572e-20 1.59539 	-1.24289 	-1.04304e-19 1.60211 	-1.23052 	-8.93609e-20 1.60918 	-1.21976 	-2.99424e-20 1.61364 	-1.20425 	-7.53293e-20 1.6184 	-1.18893 	-1.2113e-19 1.62449 	-1.17556 	-1.03472e-19 1.63178 	-1.16289 	-6.09363e-20 1.63981 	-1.15151 	3.30137e-22 1.64209 	-1.14471 	2.86563e-20 1.64469 	-1.13842 	2.81457e-20 1.64754 	-1.13249 	7.08769e-21 1.65045 	-1.1266 	-1.392e-20 1.65357 	-1.12045 	-3.59191e-20 1.65722 	-1.11359 	-6.79867e-20 1.66097 	-1.10679 	-9.99416e-20 1.66481 	-1.10004 	-1.31783e-19 1.66887 	-1.09372 	-1.31329e-19 1.67313 	-1.08822 	-7.98841e-20 1.67828 	-1.07447 	-1.11922e-19 1.6843 	-1.06121 	-1.36273e-19 1.69164 	-1.04881 	-1.45635e-19 1.69983 	-1.0382 	-1.35305e-19 1.70792 	-1.02823 	-1.25316e-19 1.7137 	-1.01472 	-2.75622e-19 1.71997 	-1.00203 	-3.49717e-19 1.72686 	-0.99059 	-2.95647e-19 1.73401 	-0.979309 	-2.42085e-19 1.7423 	-0.969227 	-1.1611e-19 1.74439 	-0.964923 	-8.28428e-20 1.74662 	-0.961067 	-8.50449e-20 1.74891 	-0.957343 	-9.68189e-20 1.75123 	-0.953636 	-1.08546e-19 1.75368 	-0.949788 	-1.20724e-19 1.75857 	-0.942399 	-1.24348e-19 1.76357 	-0.935078 	-1.27945e-19 1.76869 	-0.927824 	-1.31515e-19 1.77396 	-0.920862 	-1.29694e-19 1.77932 	-0.915071 	-1.05205e-19 1.78537 	-0.90314 	-1.32817e-19 1.79242 	-0.891778 	-1.44892e-19 1.80036 	-0.880924 	-1.43663e-19 1.80868 	-0.871862 	-1.02939e-19 1.81697 	-0.86333 	-6.09129e-20 1.82359 	-0.851639 	-1.64876e-19 1.83047 	-0.840118 	-2.66494e-19 1.83763 	-0.830425 	-2.25182e-19 1.84584 	-0.821315 	-1.27948e-19 1.85453 	-0.812869 	4.48053e-23 1.86112 	-0.802346 	1.42768e-22 1.86788 	-0.793451 	1.08257e-22 1.87483 	-0.784697 	6.97547e-23 1.88197 	-0.776044 	3.08263e-23 1.89032 	-0.766308 	-1.39662e-23 1.89072 	-0.765863 	7.59965e-22 1.89113 	-0.765418 	1.53335e-21 1.89153 	-0.764974 	2.3062e-21 1.89194 	-0.76453 	3.07851e-21 1.89233 	-0.764174 	4.53103e-22 1.89981 	-0.754715 	-2.54928e-20 1.90761 	-0.745432 	-4.73606e-20 1.91562 	-0.73626 	-6.90499e-20 1.92386 	-0.727215 	-8.98584e-20 1.93177 	-0.720227 	-3.11726e-20 1.93865 	-0.710271 	-2.1102e-20 1.94622 	-0.700751 	-1.38738e-20 1.95461 	-0.691767 	-1.03611e-20 1.96278 	-0.6845 	-1.59589e-20 1.97092 	-0.677632 	-2.24245e-20 1.97824 	-0.667925 	5.39689e-20 1.98578 	-0.658321 	1.30475e-19 1.9932 	-0.650235 	1.32362e-19 2.00151 	-0.643288 	6.5724e-20 2.00986 	-0.636546 	1.62814e-22 2.01757 	-0.627093 	9.66674e-23 2.0251 	-0.618721 	-1.12313e-20 2.03253 	-0.611181 	-3.10769e-20 2.04013 	-0.603719 	-5.08987e-20 2.0486 	-0.597077 	-6.39535e-20 2.05548 	-0.5894 	-1.06368e-19 2.06199 	-0.582913 	-1.09912e-19 2.06863 	-0.576483 	-1.13515e-19 2.07541 	-0.57011 	-1.17177e-19 2.08334 	-0.562858 	-1.21448e-19 2.08413 	-0.562168 	-1.22674e-19 2.08492 	-0.56148 	-1.239e-19 2.08571 	-0.560792 	-1.25125e-19 2.08651 	-0.560105 	-1.2635e-19 2.08723 	-0.559546 	-1.22197e-19 2.09469 	-0.552244 	-9.42659e-20 2.10239 	-0.545086 	-6.50226e-20 2.11026 	-0.537998 	-3.58172e-20 2.1183 	-0.530978 	-6.64992e-21 2.12557 	-0.525492 	1.79193e-22 2.13272 	-0.517727 	6.74878e-20 2.14055 	-0.510743 	8.65394e-20 2.14856 	-0.503851 	1.03676e-19 2.15622 	-0.497778 	8.42966e-20 2.16323 	-0.49286 	1.48678e-20 2.17062 	-0.485338 	-5.50733e-20 2.17823 	-0.477962 	-1.18907e-19 2.1863 	-0.471325 	-1.35003e-19 2.19321 	-0.46646 	-6.72713e-20 2.20019 	-0.46168 	-7.2334e-23 2.20778 	-0.4544 	-3.94358e-23 2.21554 	-0.447179 	-6.70984e-24 2.22265 	-0.441317 	0 2.22949 	-0.4366 	0 2.2364 	-0.431957 	0 2.24416 	-0.424919 	0 2.25183 	-0.418204 	0 2.25833 	-0.412969 	0 2.26502 	-0.408192 	-1.01188e-20 2.27183 	-0.403687 	-2.51415e-20 2.27971 	-0.396889 	-6.20589e-21 2.28663 	-0.391255 	-6.36695e-21 2.29313 	-0.386205 	-1.58328e-20 2.29975 	-0.381218 	-2.66996e-20 2.30642 	-0.376851 	-6.64427e-20 2.31413 	-0.370541 	-2.85037e-20 2.32047 	-0.36564 	-3.02928e-20 2.32694 	-0.360772 	-3.20536e-20 2.33353 	-0.355938 	-3.37864e-20 2.34012 	-0.35142 	-4.64583e-20 2.34635 	-0.346574 	-3.69348e-20 2.35194 	-0.342372 	-3.83805e-20 2.35762 	-0.338195 	-3.9805e-20 2.3634 	-0.334042 	-4.12082e-20 2.37022 	-0.329239 	-4.28157e-20 2.37077 	-0.328869 	-4.26927e-20 2.37131 	-0.3285 	-4.25699e-20 2.37185 	-0.32813 	-4.24473e-20 2.3724 	-0.327761 	-4.23248e-20 2.37287 	-0.327448 	-4.25093e-20 2.37904 	-0.322858 	-4.92818e-20 2.3853 	-0.318322 	-5.38299e-20 2.39167 	-0.313815 	-5.83009e-20 2.39816 	-0.309335 	-6.26955e-20 2.40379 	-0.305609 	-3.89563e-20 2.41012 	-0.300893 	-7.52182e-20 2.41628 	-0.296534 	-8.73506e-20 2.42255 	-0.292199 	-9.94242e-20 2.42893 	-0.28789 	-1.11439e-19 2.43356 	-0.284905 	-7.12872e-20 2.44014 	-0.280121 	-1.18626e-19 2.44618 	-0.275934 	-1.21152e-19 2.45232 	-0.271771 	-1.23631e-19 2.45821 	-0.267868 	-1.18993e-19 2.46218 	-0.265304 	-7.53382e-20 2.46879 	-0.260688 	-1.17868e-19 2.47496 	-0.256483 	-1.2806e-19 2.48096 	-0.252488 	-1.22454e-19 2.48589 	-0.249228 	-9.48021e-20 2.48963 	-0.24677 	-4.31999e-20 2.49621 	-0.242357 	4.31585e-20 2.50261 	-0.238137 	1.03938e-19 2.50844 	-0.234308 	1.09433e-19 2.51242 	-0.231621 	5.03772e-20 2.51591 	-0.229266 	-2.66896e-20 2.52245 	-0.225053 	-1.75862e-20 2.5291 	-0.220858 	-8.49273e-21 2.53461 	-0.217275 	8.66922e-21 2.53779 	-0.215008 	2.59577e-20 2.54102 	-0.212754 	4.32211e-20 2.5475 	-0.208736 	-4.33241e-20 2.55408 	-0.204734 	-1.29882e-19 2.55907 	-0.201514 	-1.41234e-19 2.56199 	-0.199347 	-7.10715e-20 2.56496 	-0.197192 	-1.00805e-21 2.57136 	-0.193365 	-9.47205e-23 2.57786 	-0.189554 	7.97813e-22 2.58237 	-0.186669 	-1.5659e-20 2.58503 	-0.184601 	-4.94061e-20 2.58773 	-0.182543 	-8.31284e-20 2.59405 	-0.178903 	-4.76726e-20 2.60046 	-0.175276 	-1.22326e-20 2.60453 	-0.172701 	-8.54676e-21 2.60692 	-0.170729 	-2.59305e-20 2.60935 	-0.168765 	-4.32986e-20 2.61557 	-0.165308 	-2.59878e-20 2.62187 	-0.161865 	-8.71975e-21 2.62548 	-0.159588 	-9.46396e-21 2.62767 	-0.157692 	-2.60539e-20 2.62984 	-0.155821 	-4.33794e-20 2.63595 	-0.152542 	-1.64888e-19 2.64159 	-0.149488 	-2.61735e-19 2.64504 	-0.147329 	-2.57046e-19 2.6473 	-0.145451 	-1.64749e-19 2.64921 	-0.143671 	-4.33599e-20 2.6552 	-0.140564 	-2.59817e-20 2.6602 	-0.137858 	-8.62117e-21 2.66348 	-0.135815 	8.70896e-21 2.66583 	-0.133969 	2.13117e-20 2.66747 	-0.132276 	3.02537e-20 2.67334 	-0.129339 	9.13225e-20 2.67773 	-0.126942 	1.18673e-19 2.68084 	-0.12501 	1.17e-19 2.68328 	-0.123208 	9.21141e-20 2.68466 	-0.121602 	3.16772e-20 2.6904 	-0.118828 	2.32351e-20 2.6942 	-0.116706 	1.48093e-20 2.69715 	-0.114883 	6.38841e-21 2.69968 	-0.113134 	0 2.7008 	-0.111612 	0 2.70641 	-0.108997 	0 2.70965 	-0.107119 	1.47244e-20 2.71244 	-0.1054 	3.25549e-20 2.71506 	-0.103713 	5.03701e-20 2.71593 	-0.102272 	6.8112e-20 2.7214 	-0.09981 	1.9011e-19 2.72412 	-0.0981482 	1.93596e-19 2.72673 	-0.0965304 	1.91069e-19 2.72939 	-0.0949158 	1.88593e-19 2.73007 	-0.0935491 	7.02182e-20 2.7352 	-0.0912869 	5.32038e-20 2.73762 	-0.0897638 	3.62426e-20 2.74007 	-0.0882435 	1.92732e-20 2.74257 	-0.0867259 	2.29575e-21 2.74325 	-0.0854105 	1.4696e-20 2.74794 	-0.0833651 	-4.34704e-24 2.75019 	-0.0819362 	-2.9893e-23 2.75249 	-0.0805098 	-5.54289e-23 2.75483 	-0.0790857 	-8.09545e-23 2.75551 	-0.0778259 	6.38814e-21 2.75978 	-0.0759755 	-5.0799e-20 2.76188 	-0.0746373 	-4.95001e-20 2.76402 	-0.0733011 	-4.82287e-20 2.7662 	-0.0719671 	-4.69847e-20 2.76689 	-0.070766 	-5.64292e-21 2.77076 	-0.069091 	8.55999e-23 2.77272 	-0.0678398 	6.04934e-23 2.77471 	-0.0665904 	3.53772e-23 2.77674 	-0.0653428 	1.02512e-23 2.77742 	-0.0642024 	0 2.78092 	-0.0626854 	1.11931e-20 2.78274 	-0.0615176 	3.75165e-20 2.78459 	-0.0603514 	6.38312e-20 2.78647 	-0.0591867 	9.01372e-20 2.78714 	-0.0581083 	1.07501e-19 2.79031 	-0.0567334 	1.73092e-19 2.79198 	-0.0556456 	1.72014e-19 2.79369 	-0.0545591 	1.70963e-19 2.79543 	-0.0534738 	1.69941e-19 2.79608 	-0.0524577 	1.02492e-19 2.79894 	-0.0512111 	8.75829e-20 2.80049 	-0.0501996 	5.31492e-20 2.80206 	-0.0491892 	1.871e-20 2.80366 	-0.0481799 	-1.57346e-20 2.8043 	-0.047226 	-4.66897e-20 2.80687 	-0.046095 	-9.02014e-20 2.80829 	-0.0451564 	-8.89936e-20 2.80973 	-0.0442187 	-8.78196e-20 2.8112 	-0.0432819 	-8.66794e-20 2.81181 	-0.0423894 	-3.70517e-20 2.81413 	-0.041363 	-4.95305e-20 2.81542 	-0.0404938 	-3.17097e-20 2.81675 	-0.0396253 	-1.39068e-20 2.81809 	-0.0387577 	3.87819e-21 2.81867 	-0.0379254 	4.31041e-20 2.82075 	-0.0369936 	4.98653e-20 2.82193 	-0.0361904 	6.73363e-20 2.82314 	-0.0353878 	8.47992e-20 2.82437 	-0.0345859 	1.02254e-19 2.8249 	-0.0338124 	1.22068e-19 2.82677 	-0.0329662 	1.46221e-19 2.82785 	-0.0322257 	1.36999e-19 2.82894 	-0.0314856 	1.27797e-19 2.83006 	-0.0307461 	1.18617e-19 2.83055 	-0.0300295 	8.16904e-20 2.83223 	-0.0292612 	5.80658e-20 2.8332 	-0.02858 	3.23175e-20 2.8342 	-0.0278993 	6.5674e-21 2.83521 	-0.0272189 	-1.91845e-20 2.83564 	-0.0265572 	-4.10474e-20 2.83717 	-0.0258597 	-5.61523e-20 2.83804 	-0.0252346 	-3.83781e-20 2.83893 	-0.0246099 	-2.06299e-20 2.83985 	-0.0239856 	-2.90773e-21 2.84023 	-0.0233765 	4.84805e-20 2.8416 	-0.0227435 	1.02295e-19 2.84239 	-0.0221714 	1.09975e-19 2.84319 	-0.0215996 	1.17699e-19 2.84401 	-0.0210281 	1.25466e-19 2.84433 	-0.0204692 	8.86202e-20 2.84558 	-0.0198953 	7.1802e-20 2.84628 	-0.0193731 	6.32583e-20 2.847 	-0.0188511 	5.47105e-20 2.84773 	-0.0183294 	4.61586e-20 2.84798 	-0.0178183 	3.76093e-20 2.84913 	-0.0172983 	1.44273e-20 2.84975 	-0.016823 	1.47753e-20 2.85038 	-0.0163479 	1.51008e-20 2.85103 	-0.015873 	1.54037e-20 2.85122 	-0.0154072 	4.14757e-20 2.85227 	-0.0149367 	3