# vtk DataFile Version 2.0
track0
ASCII
DATASET POLYDATA
POINTS 12278 float
-0.0205 0.001 1e-05
-0.02052 0.000999216 1e-05
-0.02054 0.000998592 1e-05
-0.02056 0.000998126 1e-05
-0.02058 0.000997818 1e-05
-0.0206 0.000997665 1e-05
-0.0205 0.00367778 1e-05
-0.02052 0.00367703 1e-05
-0.02054 0.00367643 1e-05
-0.02056 0.00367599 1e-05
-0.02058 0.00367569 1e-05
-0.0206 0.00367554 1e-05
-0.0205 0.00635556 1e-05
-0.02052 0.00635527 1e-05
-0.02054 0.00635505 1e-05
-0.02056 0.00635488 1e-05
-0.02058 0.00635476 1e-05
-0.0206 0.00635471 1e-05
-0.0205 0.00903333 1e-05
-0.02052 0.00903311 1e-05
-0.02054 0.00903293 1e-05
-0.02056 0.0090328 1e-05
-0.02058 0.00903271 1e-05
-0.0206 0.00903266 1e-05
-0.0205 0.0117111 1e-05
-0.02052 0.0117111 1e-05
-0.02054 0.011711 1e-05
-0.02056 0.011711 1e-05
-0.02058 0.011711 1e-05
-0.0206 0.011711 1e-05
-0.0205 0.0143889 1e-05
-0.02052 0.014389 1e-05
-0.02054 0.014389 1e-05
-0.02056 0.0143891 1e-05
-0.02058 0.0143891 1e-05
-0.0206 0.0143891 1e-05
-0.0205 0.0170667 1e-05
-0.02052 0.017067 1e-05
-0.02054 0.0170672 1e-05
-0.02056 0.0170674 1e-05
-0.02058 0.0170675 1e-05
-0.0206 0.0170676 1e-05
-0.0205 0.0197444 1e-05
-0.02052 0.019745 1e-05
-0.02054 0.0197454 1e-05
-0.02056 0.0197457 1e-05
-0.02058 0.0197459 1e-05
-0.0206 0.019746 1e-05
-0.0205 0.0224222 1e-05
-0.02052 0.022423 1e-05
-0.02054 0.0224236 1e-05
-0.02056 0.0224241 1e-05
-0.02058 0.0224244 1e-05
-0.0206 0.0224245 1e-05
-0.0205 0.0251 1e-05
-0.02052 0.0251003 1e-05
-0.02054 0.0251005 1e-05
-0.02056 0.0251007 1e-05
-0.02058 0.0251008 1e-05
-0.0206 0.0251008 1e-05
-0.0205 0.001 1e-05
-0.0203632 0.00100536 1e-05
-0.0202266 0.00101331 1e-05
-0.0200901 0.00102296 1e-05
-0.0200427 0.00102682 1e-05
-0.0198376 0.00104418 1e-05
-0.0196338 0.00107322 1e-05
-0.0194327 0.00111734 1e-05
-0.0192368 0.00118024 1e-05
-0.0190172 0.00124951 1e-05
-0.0189002 0.00128348 1e-05
-0.0187827 0.00131598 1e-05
-0.0186649 0.001347 1e-05
-0.0185469 0.001377 1e-05
-0.0183807 0.00141936 1e-05
-0.0182041 0.00146458 1e-05
-0.0180267 0.00150692 1e-05
-0.0178487 0.0015464 1e-05
-0.0176703 0.00158389 1e-05
-0.0174976 0.00161991 1e-05
-0.0172846 0.00166394 1e-05
-0.0170715 0.00170741 1e-05
-0.0168583 0.00175029 1e-05
-0.0166449 0.00179219 1e-05
-0.0163945 0.00184007 1e-05
-0.0163234 0.00185324 1e-05
-0.0162522 0.00186629 1e-05
-0.016181 0.00187921 1e-05
-0.0161097 0.00189201 1e-05
-0.0160387 0.0019046 1e-05
-0.0157586 0.0019535 1e-05
-0.0154779 0.00199931 1e-05
-0.0151968 0.00204225 1e-05
-0.0149154 0.00208283 1e-05
-0.0146381 0.00212134 1e-05
-0.0143838 0.00215527 1e-05
-0.0141293 0.00218766 1e-05
-0.0138747 0.00221855 1e-05
-0.0136198 0.00224797 1e-05
-0.0132934 0.00228369 1e-05
-0.0132791 0.00228515 1e-05
-0.0132648 0.0022866 1e-05
-0.0132504 0.00228805 1e-05
-0.0132361 0.0022895 1e-05
-0.0132214 0.00229098 1e-05
-0.0129776 0.00231543 1e-05
-0.0127337 0.00233865 1e-05
-0.0124897 0.00236061 1e-05
-0.0122456 0.0023813 1e-05
-0.0120025 0.00240058 1e-05
-0.0117547 0.00241909 1e-05
-0.0115067 0.00243627 1e-05
-0.0112587 0.00245231 1e-05
-0.0110106 0.00246734 1e-05
-0.0107632 0.00248136 1e-05
-0.0105252 0.00249391 1e-05
-0.0102872 0.00250547 1e-05
-0.0100491 0.00251602 1e-05
-0.00981105 0.00252575 1e-05
-0.00957337 0.00253472 1e-05
-0.00934491 0.00254261 1e-05
-0.00911643 0.00254974 1e-05
-0.00888792 0.00255611 1e-05
-0.0086594 0.00256172 1e-05
-0.00843108 0.00256669 1e-05
-0.00821175 0.00257085 1e-05
-0.00799241 0.00257439 1e-05
-0.00777306 0.00257731 1e-05
-0.0075537 0.00257953 1e-05
-0.00733443 0.00258115 1e-05
-0.00712387 0.00258213 1e-05
-0.0069133 0.00258256 1e-05
-0.00670273 0.00258244 1e-05
-0.00649216 0.00258163 1e-05
-0.0062816 0.00258019 1e-05
-0.00607944 0.0025782 1e-05
-0.0058773 0.00257567 1e-05
-0.00567516 0.00257258 1e-05
-0.00547303 0.00256876 1e-05
-0.00527083 0.00256421 1e-05
-0.00507675 0.00255914 1e-05
-0.00488269 0.00255345 1e-05
-0.00468865 0.00254713 1e-05
-0.00449464 0.00253999 1e-05
-0.00430044 0.00253193 1e-05
-0.00411412 0.00252331 1e-05
-0.00392784 0.0025139 1e-05
-0.00374159 0.00250371 1e-05
-0.0035554 0.00249257 1e-05
-0.00336883 0.00248018 1e-05
-0.00318995 0.00246714 1e-05
-0.00301115 0.00245302 1e-05
-0.00283245 0.00243777 1e-05
-0.00265386 0.00242124 1e-05
-0.00247443 0.00240317 1e-05
-0.0023027 0.00238429 1e-05
-0.00213114 0.00236388 1e-05
-0.00195982 0.00234158 1e-05
-0.00178875 0.00231742 1e-05
-0.00161577 0.00229109 1e-05
-0.00161563 0.00229107 1e-05
-0.00161549 0.00229105 1e-05
-0.00161534 0.00229102 1e-05
-0.0016152 0.002291 1e-05
-0.00161506 0.00229098 1e-05
-0.00145033 0.00226408 1e-05
-0.001286 0.00223482 1e-05
-0.0011221 0.00220328 1e-05
-0.000958647 0.0021695 1e-05
-0.000791418 0.00213241 1e-05
-0.000633135 0.0020943 1e-05
-0.000475556 0.00205337 1e-05
-0.000318719 0.00200969 1e-05
-0.000162834 0.00196272 1e-05
0 0.00190957 1e-05
3.73686e-05 0.00189636 1e-05
7.46371e-05 0.00188287 1e-05
0.000111807 0.00186911 1e-05
0.000148879 0.00185509 1e-05
0.000179207 0.00184338 1e-05
0.000249043 0.00181595 1e-05
0.000318468 0.0017875 1e-05
0.000387469 0.00175803 1e-05
0.00045603 0.00172755 1e-05
0.000528387 0.00169419 1e-05
0.000634886 0.00164321 1e-05
0.000740278 0.00158998 1e-05
0.00084451 0.00153452 1e-05
0.000947621 0.00147699 1e-05
0.00101999 0.00143469 1e-05
0.00102817 0.00142974 1e-05
0.00103634 0.00142479 1e-05
0.0010445 0.00141981 1e-05
0.00105265 0.00141482 1e-05
0.00106088 0.00140976 1e-05
0.00116821 0.00134358 1e-05
0.00127404 0.00127503 1e-05
0.00137827 0.00120407 1e-05
0.00148099 0.00113094 1e-05
0.00159679 0.00104511 1e-05
0.00159694 0.001045 1e-05
0.00159708 0.00104488 1e-05
0.00159723 0.00104477 1e-05
0.00159737 0.00104466 1e-05
0.00159752 0.00104455 1e-05
0.00169221 0.000970961 1e-05
0.00178549 0.00089561 1e-05
0.0018773 0.000818459 1e-05
0.00196768 0.000739652 1e-05
0.00203809 0.000676368 1e-05
0.00205814 0.000657894 1e-05
0.0020781 0.000639332 1e-05
0.00209798 0.00062068 1e-05
0.0021178 0.000601965 1e-05
0.00213833 0.000582468 1e-05
0.00219148 0.000531633 1e-05
0.00224414 0.000480281 1e-05
0.00229627 0.000428404 1e-05
0.00234788 0.000375996 1e-05
0.00239419 0.000328255 1e-05
0.00245202 0.000267812 1e-05
0.00250922 0.00020677 1e-05
0.00256578 0.000145145 1e-05
0.00262184 8.30537e-05 1e-05
0.00268334 1.37538e-05 1e-05
0.00268573 1.1003e-05 1e-05
0.00268812 8.25124e-06 1e-05
0.00269051 5.49842e-06 1e-05
0.0026929 2.74458e-06 1e-05
0.00269528 0 1e-05
0.00275918 -7.37368e-05 1e-05
0.00282246 -0.000148005 1e-05
0.0028851 -0.000222813 1e-05
0.00294708 -0.000298173 1e-05
0.00300415 -0.000368654 1e-05
0.00304983 -0.000425913 1e-05
0.00309521 -0.000483418 1e-05
0.00314028 -0.000541164 1e-05
0.0031851 -0.000599105 1e-05
0.00323259 -0.000661057 1e-05
0.00325065 -0.000684865 1e-05
0.00326866 -0.000708712 1e-05
0.00328662 -0.000732599 1e-05
0.00330453 -0.000756527 1e-05
0.00332209 -0.00078009 1e-05
0.00339023 -0.000871878 1e-05
0.00345777 -0.000964108 1e-05
0.00352469 -0.00105679 1e-05
0.00359106 -0.00114986 1e-05
0.00365392 -0.00123896 1e-05
0.00368036 -0.00127683 1e-05
0.00370672 -0.00131475 1e-05
0.00373301 -0.00135272 1e-05
0.00375924 -0.00139073 1e-05
0.00378611 -0.00142977 1e-05
0.00383011 -0.00149391 1e-05
0.00387389 -0.0015582 1e-05
0.00391745 -0.00162263 1e-05
0.00396079 -0.00168722 1e-05
0.00400296 -0.00175044 1e-05
0.00407115 -0.00185325 1e-05
0.00413893 -0.00195634 1e-05
0.00420628 -0.00205971 1e-05
0.00427335 -0.00216326 1e-05
0.00434393 -0.00227291 1e-05
0.00434999 -0.00228239 1e-05
0.00435605 -0.00229187 1e-05
0.0043621 -0.00230135 1e-05
0.00436815 -0.00231084 1e-05
0.00437417 -0.0023203 1e-05
0.00445502 -0.00244725 1e-05
0.00453541 -0.00257449 1e-05
0.00461541 -0.00270197 1e-05
0.00469505 -0.00282968 1e-05
0.00477292 -0.00295498 1e-05
0.00479955 -0.00299798 1e-05
0.00482616 -0.00304101 1e-05
0.00485274 -0.00308405 1e-05
0.00487932 -0.00312709 1e-05
0.00490609 -0.00317046 1e-05
0.00496673 -0.0032687 1e-05
0.00502722 -0.00336702 1e-05
0.00508756 -0.00346544 1e-05
0.00514776 -0.00356394 1e-05
0.00520742 -0.00366161 1e-05
0.00526046 -0.00374851 1e-05
0.00531346 -0.00383545 1e-05
0.00536642 -0.0039224 1e-05
0.0054194 -0.00400934 1e-05
0.00547262 -0.00409655 1e-05
0.00551559 -0.00416686 1e-05
0.00555853 -0.0042372 1e-05
0.00560143 -0.00430755 1e-05
0.00564432 -0.00437792 1e-05
0.00568714 -0.00444811 1e-05
0.00575842 -0.00456487 1e-05
0.00582975 -0.0046816 1e-05
0.00590113 -0.00479831 1e-05
0.00597264 -0.00491493 1e-05
0.00604356 -0.00503011 1e-05
0.0060798 -0.00508874 1e-05
0.00611605 -0.00514737 1e-05
0.0061523 -0.00520598 1e-05
0.00618858 -0.00526459 1e-05
0.00622497 -0.00532326 1e-05
0.00630376 -0.00545006 1e-05
0.00638275 -0.00557675 1e-05
0.00646192 -0.00570331 1e-05
0.00654137 -0.0058297 1e-05
0.00661893 -0.00595228 1e-05
0.0066628 -0.00602116 1e-05
0.00670672 -0.00609001 1e-05
0.0067507 -0.00615883 1e-05
0.00679476 -0.00622759 1e-05
0.0068392 -0.00629671 1e-05
0.00691111 -0.00640818 1e-05
0.00698328 -0.00651949 1e-05
0.00705571 -0.00663063 1e-05
0.00712843 -0.00674157 1e-05
0.00719878 -0.0068481 1e-05
0.00726942 -0.00695428 1e-05
0.00734028 -0.00706032 1e-05
0.00741136 -0.00716621 1e-05
0.00748275 -0.00727189 1e-05
0.00755567 -0.00737909 1e-05
0.00760117 -0.00744548 1e-05
0.00764678 -0.00751178 1e-05
0.00769253 -0.007578 1e-05
0.00773841 -0.00764412 1e-05
0.00778313 -0.00770824 1e-05
0.00790091 -0.00787623 1e-05
0.00801946 -0.00804369 1e-05
0.00813878 -0.00821058 1e-05
0.0082591 -0.00837677 1e-05
0.00837203 -0.00853069 1e-05
0.00837965 -0.00854093 1e-05
0.00838726 -0.00855117 1e-05
0.00839488 -0.0085614 1e-05
0.00840251 -0.00857163 1e-05
0.00841015 -0.00858189 1e-05
0.00852123 -0.00873068 1e-05
0.00863312 -0.00887885 1e-05
0.00874586 -0.00902638 1e-05
0.00885947 -0.00917324 1e-05
0.00896551 -0.00930846 1e-05
0.00903 -0.00938963 1e-05
0.00909475 -0.00947059 1e-05
0.00915977 -0.00955134 1e-05
0.00922508 -0.00963185 1e-05
0.00929256 -0.00971438 1e-05
0.00934677 -0.00978015 1e-05
0.00940117 -0.00984575 1e-05
0.00945577 -0.0099112 1e-05
0.00951057 -0.00997648 1e-05
0.0095636 -0.0100392 1e-05
0.00968415 -0.010181 1e-05
[...]
POINT_DATA 12278
 FIELD attributes 2
p 1 12278 float
177015 177097 177170 177233 177287 177332
108949 108967 108983 108997 109010 109020
87755.3 87764.9 87774.2 87783.4 87792.3 87800.8
79937.6 79943.9 79950.1 79956.2 79962.3 79968.3
77146.7 77155.9 77165.1 77174.3 77183.6 77192.8
77564.1 77577.6 77591.2 77604.8 77618.3 77631.9
81097.2 81109.7 81121.9 81134 81145.9 81157.7
90923.7 90943.5 90962.5 90980.8 90998.4 91015.2
117356 117388 117419 117447 117473 117497
215475 215285 215093 214899 214703 214505
177015 173410 169083 164504 162838 158906 155524 152873 144708 134667 129224 123795 119857 119246 118394 112349 106450 102328 101433 100566 99583.6 98601.4 97174.7 95706.4 93990.8 93624.4 93257.3 92889.8 92408.8 91911.1 89991.5 88187.6 86673.6 85886.3 85109.5 84423.8 83759 83109.2 82457.4 81623.5 81588.6 81559.6 81531.6 81503.6 81474.8 80942 80409.7 79877.9 79346.6 78921.5 78495.2 78086.1 77688.4 77312.8 76946.8 76596.9 76246.6 75922.9 75621.4 75320.3 75030.8 74741.2 74462.7 74199.8 73937.2 73683.6 73429.9 73179.8 72943.6 72707.6 72478.6 72249.7 72019.2 71799.7 71580.5 71366.9 71153.4 70934.7 70723.9 70513.2 70306.1 70099.1 69886.2 69673.8 69461.6 69249.7 69038.2 68823.1 68595 68367.4 68134.5 67898.9 67654.8 67402.1 67136.2 66856 66542.2 66230.1 65919.4 65606.4 65606.1 65605.7 65605.4 65605 65604.6 65213.5 64828.1 64448.3 64050.3 63570.4 63054.9 62545.2 61844.2 61071.1 60258 60009.6 59771.5 59544.3 59317.7 59132.3 58575.6 58016.7 57455.8 56982.7 56514.5 55910 55307.3 54767.5 54226.5 53841.5 53783.5 53725.4 53670.2 53622.7 53574.6 53021.5 52461.2 51943.2 51470.8 50925 50924.1 50923.2 50922.4 50921.7 50921 50493.8 50059.1 49656.6 49321 49052 48952.9 48853.3 48782.5 48712.9 48640.4 48451.9 48261 48068.4 47923.9 47791.8 47619.1 47450.5 47310.9 47169.3 47010 47003.6 46997.1 46990.6 46984.8 46979.2 46874 46761.7 46646.9 46533.7 46426.7 46391.2 46354.4 46314.9 46274.5 46230.8 46210.6 46190.3 46169.9 46148.7 46127.6 46102.2 46075.5 46038.4 45996.1 45954.6 45957 45959.1 45958.4 45957.6 45956.6 45945.3 45933.6 45921.5 45906.4 45891.2 45901 45910.1 45914.6 45918.6 45922.3 45921.4 45920.6 45919.7 45918.7 45917.6 45931.1 45944.7 45957.4 45968.1 45978.4 45988.7 45998.9 46008.7 46018.4 46028.2 46039.7 46051.1 46062.3 46073.3 46084.3 46102.7 46121.1 46139.5 46158.1 46176.7 46185.2 46193.8 46202.4 46211.5 46220.6 46243.3 46266.1 46289.4 46313.3 46337.1 46344.5 46351.8 46359.6 46367.8 46376.1 46399.3 46422.6 46446.8 46472 46496.7 46505.6 46514.6 46524.2 46534.4 46544.7 46564.4 46584.1 46604.5 46626.4 46647.6 46661.5 46675.4 46691.1 46707.4 46724.1 46735.6 46747.2 46758.9 46771.6 46784 46805.9 46828 46853.5 46879.7 46905.6 46906.7 46907.8 46909.1 46910.5 46911.9 46933 46954.4 46976.2 47000.1 47022.5 47032 47041.6 47052.6 47063.6 47075 47084.7 47094.5 47104.3 47114.7 47124.8 47142 47159.4 47178.3 47198.1 47217.5 47220 47222.7 47225.6 47228.5 47231.5 47245.8 47260.3 47274.8 47290.4 47305.4 47319.1 47333.3 47348.7 47364.3 47381.1 47381.2 47381.3 47381.4 47381.5 47381.6 47396.2 47410.9 47425.8 47441.6 47456.9 47468.9 47481.5 47495.1 47508.8 47521.9 47522.5 47523.1 47523.7 47524.4 47525.1 47536.9 47548.7 47560.7 47573.3 47585.8 47596.1 47606.4 47618 47630.2 47642.2 47646.2 47650.6 47655.2 47659.9 47664.8 47670.6 47676.5 47682.4 47688.6 47695 47703.8 47712.9 47722.6 47733.5 47743.9 47751.5 47759.6 47768.5 47777.5 47786.6 47788.7 47791.2 47793.7 47796.2 47798.8 47804.2 47809.6 47815 47820.5 47826.6 47832.8 47839.3 47846.2 47854.3 47862.1 47867.2 47872.2 47878.5 47885.1 47891.8 47895.4 47900.1 47904.7 47909.4 47914.6 47914.9 47915.1 47915.4 47915.6 47916 47920.1 47924.2 47928.3 47932.5 47937.5 47939.8 47942.4 47945.3 47949.2 47953.1 47954.2 47955.3 47957.3 47960 47962.7 47962.6 47963.1 47964 47964.9 47966.3 47965.4 47965.2 47964.9 47964.6 47964.2 47964.2 47964.2 47964.1 47964.1 47964.2 47962.8 47961.5 47960.1 47958.7 47957.9 47954.7 47952.2 47949.6 47947.3 47945.5 47941.1 47936.8 47933.1 47930 47927 47921.5 47915.9 47911 47906.7 47902.4 47895.8 47889.2 47883.1 47877.4 47871.9 47864.2 47856.8 47849.5 47842.3 47835.6 47826.9 47818.5 47810.1 47801.7 47793.6 47785 47776.6 47768.2 47759.7 47749.9 47749.1 47748.4 47747.6 47746.9 47746.1 47735.7 47725.2 47714.8 47704.3 47693.9 47682.2 47670.7 47659.2 47647.7 47636.4 47623.4 47610.9 47598.4 47585.9 47573.6 47559.7 47546 47532.6 47519.2 47505.9 47491 47476.3 47461.9 47447.6 47433.3 47417.6 47401.8 47386.5 47371.3 47356.1 47339.6 47323 47306.8 47290.7 47274.6 47257.2 47239.9 47222.7 47205.8 47188.8 47170.8 47152.6 47134.6 47116.9 47099.1 47080.3 47061.5 47042.6 47024.1 47005.6 46986.1 46966.6 46947 46927.7 46908.5 46888.4 46868.2 46848 46827.9 46808 46787.3 46766.5 46745.6 46724.9 46704.3 46683 46661.6 46640.2 46618.8 46597.6 46575.8 46553.8 46531.8 46509.8 46488.1 46465.7 46443.2 46420.7 46398.1 46375.8 46353 46329.9 46306.9 46283.9 46261.1 46237.7 46214.3 46190.8 46167.3 46144 46120.2 46096.3 46072.4 46048.4 46024.6 46000.4 45976.1 45951.8 45927.5 45903.2 45878.6 45853.9 45829.2 45804.5 45779.9 45754.9 45729.9 45704.8 45679.7 45654.7 45629.4 45604 45578.6 45553.2 45527.8 45502.2 45476.4 45450.7 45425 45399.3 45373.4 45347.3 45321.3 45295.3 45269.3 45243 45216.7 45190.4 45164.1 45137.9 45111.3 45084.8 45058.2 45031.6 45005.1 44978.3 44951.5 44924.6 44897.8 44871 44844 44816.9 44789.9 44762.8 44735.7 44708.5 44681.2 44653.9 44626.6 44599.3 44571.9 44544.3 44516.8 44489.3 44461.8 44434.1 44406.4 44378.7 44351 44323.3 44295.4 44267.5 44239.6 44211.6 44183.7 44155.6 44127.5 44099.4 44071.3 44043.2 44014.9 43986.6 43958.3 43930 43901.7 43873.3 43844.8 43816.3 43787.9 43759.4 43730.7 43702.1 43673.4 43644.8 43616.1 43587.3 43558.5 43529.6 43500.8 43471.9 43443 43414 43384.9 43355.9 43326.9 43297.8 43268.6 43239.4 43210.2 43181 43151.7 43122.4 43093 43063.7 43034.3 43004.8 42975.3 42945.8 42916.2 42886.7 42857.1 42827.4 42797.7 42768 42738.3 42708.4 42678.6 42648.7 42618.8 42589 42559 42528.9 42498.9 42468.8 42438.8 42408.6 42378.4 42348.2 42318 42287.7 42257.4 42227 42196.6 42166.2 42135.8 42105.3 42074.7 42044.1 42013.6 41983 41952.3 41921.5 41890.8 41860 41829.2 41798.3 41767.4 41736.5 41705.5 41674.6 41643.5 41612.4 41581.2 41550.1 41519 41487.7 41456.4 41425 41393.7 41362.4 41330.9 41299.4 41267.9 41236.4 41204.8 41173.2 41141.5 41109.8 41078 41046.3 41014.4 40982.5 40950.6 40918.7 40886.7 40854.7 40822.5 40790.4 40758.3 40726.1 40693.9 40661.5 40629.2 40596.9 40564.5 40532 40499.5 40466.9 40434.4 40401.8 40369.1 40336.3 40303.6 40270.8 40238 40205 40172.1 40139.1 40106.1 40073.1 40039.9 40006.7 39973.5 39940.3 39907 39873.6 39840.2 39806.7 39773.3 39739.8 39706.2 39672.5 39638.8 39605.2 39571.4 39537.6 39503.7 39469.7 39435.8 39401.9 39367.8 39333.6 39299.5 39265.3 39231.1 39196.7 39162.3 39127.9 39093.5 39059.1 39024.5 38989.8 38955.2 38920.5 38885.8 38851 38816.1 38781.2 38746.3 38711.3 38676.2 38641.1 38605.9 38570.7 38535.5 38500.2 38464.8 38429.3 38393.9 38358.4 38322.8 38287.1 38251.4 38215.8 38180 38144.1 38108.2 38072.2 38036.3 38000.3 37964.1 37927.9 37891.7 37855.5 37819.2 37782.7 37746.3 37709.8 37673.3 37636.7 37600 37563.2 37526.5 37489.7 37452.8 37415.9 37378.8 37341.8 37304.7 37267.6 37230.4 37193 37155.7 37118.4 37081 37043.4 37005.8 36968.2 36930.6 36892.9 36855 36817.2 36779.3 36741.3 36703.3 36665.2 36627.1 36588.9 36550.6 36512.4 36474 36435.5 36397 36358.5 36319.9 36281.2 36242.5 36203.7 36164.8 36126 36087 36047.9 36008.8 35969.7 35930.6 35891.2 35851.9 35812.5 35773.1 35733.6 35694 35654.3 35614.6 35574.9 35535.1 35495.2 35455.3 35415.3 35375.2 35335.1 35294.9 35254.6 35214.3 35174 35133.6 35093 35052.4 35011.8 34971.1 34930.4 34889.6 34848.7 34807.7 34766.8 34725.7 34684.6 34643.4 34602.1 34560.8 34519.4 34477.9 34436.4 34394.8 34353.2 34311.5 34269.7 34227.9 34186 34144 34102 34059.9 34017.7 33975.5 33933.2 33890.9 33848.4 33805.9 33763.3 33720.7 33678.1 33635.3 33592.5 33549.6 33506.6 33463.6 33420.5 33377.3 33334.1 33290.8 33247.5 33204 33160.6 33117 33073.4 33029.7 32985.9 32942.1 32898.2 32854.2 32810.2 32766.1 32721.9 32677.7 32633.3 32589 32544.5 32500 32455.4 32410.8 32366.1 32321.2 32276.4 32231.4 32186.4 32141.4 32096.2 32051 32005.7 31960.4 31915 31869.5 31823.9 31778.3 31732.6 31686.8 31640.9 31595 31549 31503 31456.9 31410.6 31364.3 31318 31271.6 31225.1 31178.5 31131.9 31085.2 31038.4 30991.6 30944.6 30897.6 30850.5 30803.4 30756.2 30708.9 30661.5 30614.1 30566.5 30519 30471.3 30423.6 30375.7 30327.9 30280 30231.9 30183.8 30135.6 30087.3 30039.1 29990.6 29942.1 29893.5 29844.9 29796.3 29747.4 29698.5 29649.6 29600.6 29551.6 29502.3 29453.1 29403.7 29354.3 29304.9 29255.3 29205.7 29156 29106.2 29056.4 29006.4 28956.3 28906.2 28856.1 28805.9 28755.5 28705 28654.5 28604 28553.4 28502.6 28451.8 28400.9 28349.9 28298.9 28247.7 28196.5 28145.2 28093.8 28042.4 27990.8 27939.2 27887.5 27835.7 27783.9 27731.9 27679.8 27627.7 27575.5 27523.3 27470.8 27418.4 27365.9 27313.2 27260.6 27207.7 27154.9 27101.9 27048.9 26995.8 26942.5 26889.2 26835.8 26782.4 26728.9 26675.2 26621.5 26567.7 26513.8 26459.9 26405.8 26351.6 26297.4 26243.1 26188.8 26134.2 26079.6 26025 25970.4 25915.6 25860.7 25805.7 25750.7 25695.6 25640.6 25585.2 25529.9 25474.5 25419.2 25363.7 25308.1 25252.4 25196.8 25141.2 25085.6 25029.7 24973.9 24918.2 24862.4 24806.7 24750.8 24695 24639.3 24583.6 24528 24472.2 24417 24361.8 24306.8 24252.1 24197.4 24142.4 24087.4 24032.4 23977 23922.3 23873.7 23825 23776.4 23732.6 23683.5 23618.1 23552.7 23487.2 23412.7 23361.5 23331.1 23301 23271.3 23257 23252.9 23248.7 23244.6 23240.4 23238.9 23236.3 23231 23225.7 23220.5 23214.7 23187.8 23160.6 23133.1 23105.5 23061.8 22985.9 22917 22848 22779.2 22722.9 22671.7 22615.4 22559.1 22502.7 22440 22372.3 22304.2 22236.1 22168 22099.5 22028.2 21955 21881.8 21808.5 21733.2 21655 21575.2 21495.4 21415.6 21334.2 21249.9 21163.7 21077.6 20991.4 20903.5 20812.5 20719.6 20626.6 20533.6 20438.8 20340.7 20240.5 20140.1 20039.8 19937.4 19831.5 19723.4 19615.1 19506.6 19396.2 19281.9 19164.8 19047.6 18930.2 18810.5 18686.5 18559.7 18432.8 18305.8 18176.4 18042.3 17904.4 17766.2 17627.8 17486 17339 17189.3 17039.5 16889.5 16737.3 16579.4 16414.9 16250 16084.7 15913.3 15735.5 15557.4 15379.2 15201.1 15023 14838.4 14638.9 14438.5 14237.4 14022.2 13799 13585.9 13373.4 13161.4 12960.1 12751.2 12503.7 12253.9 12002.1 11712.7 11412.6 11157.2 10904.8 10655 10450.2 10237.7 9921.69 9598.12 9265.96 8833.28 8384.29 8071.53 7773.92 7494.33 7349.23 7198.19 6801.72 6357.26 5839.01 5089.64 4311.36 3779.2 3398.28 3250.93 3316.66 3382.96 3362.03 2777.13 1388.16 0