/*--------------------------------*- C++ -*----------------------------------*\
  =========                 |
  \\      /  F ield         | OpenFOAM: The Open Source CFD Toolbox
   \\    /   O peration     | Website:  https://openfoam.org
    \\  /    A nd           | Version:  8
     \\/     M anipulation  |
\*---------------------------------------------------------------------------*/
FoamFile
{
    version     2.0;
    format      ascii;
    class       volScalarField;
    location    "1";
    object      alpha;
}
// * * * * * * * * * * * * * * * * * * * * * * * * * * * * * * * * * * * * * //

dimensions      [0 0 0 0 0 0 0];

internalField   nonuniform List<scalar> 
6300
(
0.460759
0.0905022
0.0887556
0.0903763
0.088713
0.0861818
0.0834762
0.080692
0.0778047
0.0748012
0.0716895
0.0684848
0.0652019
0.0618524
0.058445
0.0549861
0.0514803
0.0479305
0.0443381
0.0407034
0.0370249
0.0332992
0.02952
0.0256769
0.0217529
0.0177218
0.0135521
0.00925398
0.00557374
0.00174461
0.0470579
0.0399496
0.044525
0.0476567
0.0488247
0.0482104
0.0466579
0.0448839
0.0431921
0.0416101
0.0400785
0.0385392
0.0369552
0.0353072
0.0335873
0.0317937
0.0299282
0.0279946
0.0259982
0.0239454
0.0218445
0.0197058
0.0175425
0.015373
0.0132229
0.0111287
0.00911673
0.00709251
0.00507209
0.00381219
0.205034
0.0930134
0.051017
0.027057
0.0174044
0.0152922
0.015899
0.0169463
0.0174939
0.0173776
0.0167708
0.0158833
0.014863
0.0137962
0.0127297
0.0116871
0.0106796
0.00971067
0.00877973
0.00788323
0.00701567
0.00616978
0.0053365
0.00450529
0.00366709
0.00282087
0.00196323
0.00119198
0.00187686
0.00274173
0.26319
0.137562
0.0737837
0.0333166
0.0123716
0.00436639
0.0031666
0.00428894
0.00538936
0.00576322
0.00548957
0.004832
0.00400607
0.0031455
0.0023254
0.00158689
0.000955789
0.000473429
0.000336384
0.000559118
0.000795964
0.000981279
0.00111969
0.00123218
0.00135161
0.00149261
0.00156024
0.00150425
0.00248956
0.00364454
0.28898
0.168098
0.0979134
0.049892
0.0221367
0.00940542
0.00565166
0.00571416
0.00648657
0.00676735
0.00641741
0.00564479
0.00466992
0.00364304
0.00265264
0.00174754
0.000953413
0.000290962
0.000309493
0.000740742
0.00107843
0.00133075
0.00151789
0.00166822
0.00181866
0.00198302
0.00207005
0.00205796
0.00304288
0.00403403
0.303637
0.189304
0.117186
0.0651593
0.0326115
0.0157586
0.00925329
0.00782429
0.00789706
0.00784461
0.00728472
0.00632941
0.00517536
0.00397296
0.00281549
0.00175581
0.000821391
2.44094e-05
0.000635238
0.00116154
0.00156826
0.0018734
0.00210023
0.00227906
0.00244698
0.00261616
0.00269769
0.0026733
0.00355052
0.00431745
0.313053
0.204692
0.132321
0.0782418
0.0424763
0.0223271
0.0132593
0.0102107
0.00938995
0.00885224
0.00798879
0.00680064
0.0054441
0.00405858
0.00273562
0.00152848
0.000465228
0.000441973
0.00119047
0.00178818
0.00224929
0.00259308
0.00284392
0.0030326
0.00319533
0.00334272
0.00338669
0.00330346
0.00401892
0.0045472
0.319857
0.216714
0.144724
0.0896014
0.0516485
0.0289011
0.0175556
0.0128936
0.011076
0.0099443
0.00869755
0.00722563
0.00563584
0.00404929
0.00255094
0.00119154
2.29748e-06
0.00101671
0.00185159
0.0025162
0.00302579
0.00340063
0.00366575
0.00385193
0.00399422
0.00410139
0.00408454
0.00391311
0.0044457
0.00473909
0.325168
0.22661
0.155241
0.099591
0.0600984
0.0352863
0.0219508
0.0157483
0.0128941
0.0110996
0.0094102
0.00761271
0.00576239
0.00395773
0.00227384
0.000756806
0.000568453
0.00168876
0.00260674
0.00333324
0.00388471
0.00428227
0.00455139
0.00472264
0.00482983
0.00487956
0.00478169
0.00450003
0.00483878
0.0049052
0.329504
0.235032
0.164387
0.108486
0.0678647
0.0413827
0.0263128
0.0186693
0.0147777
0.012281
0.0101069
0.00795114
0.00581772
0.00378022
0.00190187
0.000222506
0.00123413
0.00245799
0.00345498
0.00423763
0.00482361
0.00523489
0.00549726
0.00564101
0.0056987
0.00567488
0.00547848
0.00506989
0.00520819
0.00505484
0.333147
0.242359
0.172493
0.116502
0.0750213
0.0471603
0.0305714
0.0215921
0.0166844
0.0134664
0.0107789
0.00823975
0.00580458
0.00352148
0.00144061
0.000405135
0.00199241
0.00331773
0.00438975
0.00522292
0.00583625
0.00625252
0.00649791
0.00660244
0.00659749
0.00648594
0.00617656
0.00562844
0.00556194
0.00519399
0.336267
0.248835
0.179778
0.1238
0.0816432
0.0526201
0.0346896
0.0244755
0.0185844
0.0146395
0.0114199
0.0084782
0.0057259
0.00318609
0.000895304
0.00111915
0.00283713
0.00426197
0.00540534
0.00628374
0.00691767
0.00733081
0.00754974
0.00760426
0.0075249
0.00731325
0.00687904
0.00618149
0.00590644
0.00532672
0.33898
0.254622
0.186395
0.130499
0.0877977
0.0577768
0.0386504
0.0272932
0.0204566
0.0157881
0.0120249
0.00866629
0.0055842
0.00277794
0.000270466
0.00191414
0.00376307
0.00528577
0.00649712
0.00741595
0.00806426
0.00846675
0.00865051
0.00864532
0.00848104
0.00815866
0.00758965
0.0067344
0.00624679
0.00545592
0.341366
0.25984
0.192453
0.136691
0.0935426
0.0626512
0.0424484
0.03003
0.0222868
0.0169034
0.0125903
0.00880397
0.00538157
0.00230024
0.000429877
0.00278567
0.00476587
0.006385
0.00766138
0.00861627
0.00927335
0.00965842
0.00979913
0.00972546
0.00946696
0.00902454
0.00831224
0.00729189
0.00658708
0.00558364
0.343486
0.264579
0.198036
0.142447
0.0989268
0.0672656
0.046085
0.0326774
0.0240655
0.0179787
0.0131132
0.00889115
0.00511964
0.00175552
0.00120109
0.00373011
0.00584202
0.00755644
0.00889529
0.00988238
0.0105432
0.0109047
0.0109953
0.0108453
0.0104843
0.00991371
0.00905053
0.00785811
0.0069306
0.00571146
0.345387
0.26891
0.20321
0.147823
0.103992
0.0716418
0.0495656
0.0352314
0.0257866
0.0190096
0.0135914
0.00892765
0.00479954
0.00114562
0.00204026
0.00474456
0.00698872
0.00879756
0.0101967
0.0112127
0.0118727
0.0122052
0.0122393
0.0120061
0.0115352
0.0108291
0.00980809
0.00843669
0.00728008
0.00584062
0.347104
0.27289
0.208026
0.152867
0.108772
0.0758001
0.0528973
0.0376913
0.0274463
0.0199928
0.0140232
0.00891322
0.00442198
0.000471763
0.00294532
0.00582688
0.00820394
0.0101066
0.0115643
0.0126062
0.0132616
0.0135602
0.0135322
0.0132093
0.0126219
0.0117736
0.0105883
0.00903085
0.0076378
0.00597207
0.348666
0.276566
0.212529
0.157615
0.113297
0.0797592
0.0560882
0.040058
0.0290428
0.0209261
0.0144074
0.00884749
0.00398731
0.000265203
0.00391475
0.00697547
0.00948623
0.0114824
0.0129972
0.0140626
0.0147099
0.0149703
0.0148752
0.014457
0.013747
0.0127502
0.0113943
0.00964346
0.00800575
0.00610666
0.350097
0.279976
0.216753
0.1621
0.117593
0.0835358
0.0591465
0.0423338
0.0305753
0.0218081
0.0147428
0.00873004
0.00349553
0.00106323
0.00494758
0.00818937
0.0108347
0.0129242
0.014495
0.0155819
0.0162182
0.0164367
0.0162699
0.0157513
0.0149131
0.013762
0.012229
0.0102771
0.00838565
0.00624507
0.351415
0.283153
0.220731
0.166349
0.121682
0.0871449
0.0620803
0.0445213
0.0320437
0.0226377
0.0150285
0.00856026
0.00294631
0.00192148
0.00604326
0.00946801
0.012249
0.014432
0.0160581
0.0171648
0.0177875
0.0179607
0.0177182
0.0170945
0.0161229
0.0148118
0.0130954
0.0109343
0.00877908
0.00638794
0.352637
0.286125
0.224486
0.170384
0.125581
0.0905998
0.0648971
0.0466236
0.0334484
0.0234144
0.0152638
0.00833747
0.00233905
0.00283996
0.00720169
0.0108113
0.0137291
0.016006
0.0176869
0.0188121
0.0194192
0.0195442
0.0192223
0.0184892
0.0173791
0.0159024
0.0139962
0.0116172
0.0091875
0.00653583
0.353773
0.288913
0.228043
0.174227
0.129309
0.0939124
0.0676038
0.048644
0.0347903
0.0241378
0.0154479
0.0080608
0.00167284
0.00381899
0.00842312
0.0122196
0.0152754
0.0176469
0.0193823
0.020525
0.0211148
0.0211891
0.0207845
0.0199379
0.0186846
0.0170368
0.0149339
0.012328
0.00961224
0.00668927
0.354835
0.291538
0.231419
0.177893
0.132878
0.0970931
0.070207
0.0505853
0.0360699
0.0248075
0.0155798
0.00772918
0.000946484
0.00485919
0.00970816
0.0136934
0.0168889
0.0193555
0.0211456
0.0223052
0.0228761
0.0228975
0.0224072
0.0214433
0.0200422
0.0182177
0.0159113
0.0130687
0.0100546
0.00684876
0.355832
0.294015
0.23463
0.181398
0.136302
0.100151
0.0727123
0.0524503
0.0372882
0.025423
0.0156587
0.00734132
0.000158446
0.00596152
0.0110578
0.0152339
0.0185704
0.0211333
0.0229783
0.0241543
0.0247051
0.0246716
0.024093
0.0230081
0.0214547
0.0194479
0.0169308
0.0138413
0.0105158
0.00701479
0.356771
0.29636
0.237692
0.184755
0.139591
0.103094
0.0751248
0.0542416
0.0384456
0.0259839
0.0156832
0.0068957
0.000692212
0.00712721
0.0124731
0.0168423
0.0203216
0.0229817
0.0248821
0.0260743
0.0266041
0.026514
0.0258443
0.0246351
0.0229249
0.0207302
0.0179948
0.0146479
0.0109971
0.00718781
0.357657
0.298585
0.240617
0.187975
0.142754
0.10593
0.0774489
0.055961
0.0395425
0.0264893
0.0156522
0.0063904
0.00160537
0.00835784
0.0139559
0.0185202
0.022144
0.0249026
0.026859
0.0280673
0.0285754
0.0284272
0.0276641
0.0263271
0.0244557
0.0220674
0.0191059
0.0154903
0.0114997
0.0073683
0.358496
0.3007
0.243414
0.191068
0.145801
0.108664
0.0796882
0.0576104
0.040579
0.0269383
0.0155636
0.00582324
0.00258289
0.00965528
0.0155079
0.0202696
0.0240397
0.0268981
0.0289112
0.0301358
0.0306215
0.0304137
0.029555
0.028087
0.02605
0.0234622
0.0202665
0.0163703
0.0120247
0.00755671
0.359292
0.302713
0.246094
0.194041
0.148737
0.111301
0.0818459
0.0591908
0.0415547
0.0273294
0.0154156
0.00519157
0.00362707
0.0110218
0.0171314
0.0220927
0.0260109
0.0289704
0.031041
0.032282
0.0327449
0.0324763
0.0315198
0.0299177
0.0277106
0.0249173
0.0214789
0.01729
0.0125733
0.00775351
0.360049
0.304634
0.248665
0.196903
0.151568
0.113846
0.0839243
0.0607028
0.0424688
0.0276608
0.0152055
0.00449226
0.00474055
0.01246
0.0188289
0.0239919
0.02806
0.031122
0.033251
0.0345086
0.0349482
0.0346176
0.0335612
0.0318219
0.0294404
0.0264354
0.0227456
0.018251
0.0131466
0.00795915
0.36077
0.306468
0.251133
0.19966
0.1543
0.116301
0.085925
0.0621466
0.04332
0.0279303
0.0149302
0.00372165
0.00592645
0.0139729
0.0206034
0.0259701
0.0301898
0.0333556
0.0355437
0.0368182
0.0372341
0.0368404
0.0356821
0.0338024
0.0312421
0.0280191
0.0240688
0.0192552
0.0137458
0.00817409
0.361458
0.308222
0.253504
0.202317
0.156937
0.118671
0.0878489
0.0635213
0.0441064
0.0281347
0.014586
0.00287538
0.00718839
0.015564
0.0224581
0.0280305
0.0324033
0.035674
0.037922
0.0392135
0.0396053
0.0391473
0.0378851
0.035862
0.0331184
0.0296711
0.0254509
0.0203044
0.0143721
0.0083988
0.362115
0.309901
0.255783
0.204878
0.159482
0.120956
0.0896963
0.0648258
0.0448253
0.0282706
0.0141686
0.00194841
0.00853056
0.0172373
0.0243969
0.0301764
0.0347037
0.0380802
0.0403886
0.0416972
0.0420644
0.0415409
0.0401729
0.0380033
0.0350718
0.0313937
0.026894
0.0214004
0.0150265
0.00863373
0.362743
0.311509
0.257976
0.207347
0.161938
0.123157
0.0914664
0.0660577
0.0454732
0.0283334
0.0136724
0.000934761
0.00995783
0.0189973
0.0264239
0.0324119
0.0370946
0.0405776
0.0429465
0.0442721
0.044614
0.0440238
0.0425478
0.0402288
0.037105
0.0331894
0.0284002
0.0225447
0.0157101
0.00887933
0.363343
0.313049
0.260085
0.209726
0.164305
0.125274
0.0931577
0.067214
0.0460458
0.0283175
0.0130912
0.00017273
0.0114758
0.0208491
0.0285438
0.034741
0.0395796
0.0431693
0.0455988
0.0469408
0.0472565
0.0465983
0.0450123
0.0425406
0.03922
0.0350602
0.0299715
0.0237389
0.016424
0.00913605
0.363918
0.314526
0.262113
0.212018
0.166584
0.127307
0.0947672
0.0682904
0.0465373
0.0282162
0.0124174
0.00137813
0.0130909
0.0227987
0.0307618
0.0371685
0.0421629
0.0458589
0.0483482
0.0497059
0.0499943
0.0492664
0.0475683
0.0449409
0.0414189
0.0370082
0.0316095
0.0249845
0.0171691
0.00940432
0.364467
0.315941
0.264062
0.214224
0.168776
0.129252
0.0962913
0.0692812
0.0469407
0.0280213
0.0116418
0.00268832
0.0148107
0.0248528
0.0330839
0.0396993
0.0448485
0.0486498
0.0511977
0.0525697
0.0528292
0.0520299
0.0502173
0.047431
0.0437032
0.0390348
0.0333157
0.0262826
0.0179463
0.00968455
0.364993
0.317297
0.265934
0.216344
0.170877
0.131107
0.0977244
0.0701793
0.0472473
0.0277228
0.0107537
0.0041127
0.0166437
0.0270189
0.0355165
0.0423388
0.047641
0.0515454
0.05415
0.0555341
0.0557628
0.0548899
0.0529604
0.0500122
0.0460741
0.0411412
0.0350913
0.0276343
0.0187565
0.00997711
0.365496
0.318594
0.267729
0.218376
0.172886
0.132867
0.0990595
0.0709756
0.0474463
0.0273087
0.00974009
0.00566243
0.0185999
0.0293056
0.0380668
0.0450929
0.0505448
0.0545492
0.0572073
0.0586009
0.0587961
0.057847
0.055798
0.0526847
0.048532
0.0433281
0.036937
0.0290403
0.0196001
0.0102823
0.365976
0.319835
0.269448
0.220319
0.174799
0.134524
0.100287
0.0716587
0.0475244
0.0267644
0.00858538
0.00735055
0.0206906
0.0317225
0.0407426
0.0479678
0.0535645
0.0576642
0.0603717
0.0617707
0.0619291
0.0609009
0.0587296
0.0554481
0.0510766
0.0455954
0.0388529
0.0305009
0.0204777
0.0106005
0.366434
0.32102
0.271088
0.222169
0.176608
0.13607
0.101396
0.0722141
0.0474653
0.0260719
0.00727098
0.00919226
0.0229289
0.0342806
0.0435527
0.0509697
0.0567045
0.0608932
0.0636441
0.0650437
0.065161
0.0640503
0.0617535
0.0583007
0.0537066
0.0479421
0.0408385
0.032016
0.0213895
0.0109318
0.36687
0.322147
0.272647
0.223921
0.178305
0.137492
0.10237
0.0726238
0.0472487
0.0252096
0.00577448
0.0112053
0.0253298
0.0369917
0.0465061
0.0541054
0.0599689
0.064238
0.0670247
0.0684185
0.0684894
0.0672921
0.0648667
0.0612397
0.0564194
0.0503662
0.0428924
0.0335849
0.0223353
0.0112765
0.367283
0.323216
0.274122
0.225567
0.179879
0.138776
0.10319
0.0728653
0.0468495
0.024151
0.00406893
0.0134103
0.0279102
0.0398692
0.0496126
0.0573812
0.0633611
0.0676993
0.0705123
0.071892
0.0719104
0.0706216
0.0680641
0.0642602
0.0592108
0.0528643
0.0450121
0.035206
0.0233146
0.0116344
0.367673
0.324225
0.275506
0.227097
0.181315
0.139901
0.103832
0.0729103
0.0462369
0.0228637
0.00212195
0.015831
0.0306891
0.0429276
0.0528822
0.0608028
0.0668833
0.0712765
0.0741034
0.0754592
0.0754172
0.0740316
0.0713385
0.0673553
0.0620747
0.0554314
0.0471939
0.0368771
0.0243265
0.0120054
0.368039
0.325169
0.276792
0.228498
0.182593
0.140841
0.104264
0.0727229
0.0453722
0.0213081
0.000106691
0.0184947
0.0336878
0.0461819
0.0563244
0.0643751
0.0705358
0.074966
0.0777918
0.0791116
0.0790003
0.0775117
0.0746795
0.0705153
0.0650024
0.0580603
0.0494324
0.0385949
0.0253696
0.0123895
0.368379
0.326044
0.277967
0.22975
0.183687
0.141562
0.104447
0.0722579
0.0442073
0.0194354
0.00264646
0.0214327
0.0369294
0.0496479
0.0599482
0.0681006
0.0743162
0.0787614
0.0815677
0.082837
0.0826459
0.0810477
0.0780729
0.0737269
0.0679822
0.0607412
0.0517202
0.0403545
0.0264418
0.012786
0.36869
0.326841
0.279017
0.230829
0.184561
0.14202
0.104326
0.0714576
0.042682
0.017186
0.005537
0.0246794
0.0404383
0.0533406
0.06376
0.0719789
0.0782179
0.0826512
0.085416
0.086618
0.0863352
0.0846202
0.0814998
0.0769724
0.0709983
0.063461
0.0540475
0.0421496
0.0275403
0.0131946
0.368969
0.327549
0.279918
0.231701
0.185169
0.142156
0.103836
0.070248
0.0407205
0.0144865
0.00882945
0.0282731
0.0442396
0.0572732
0.067763
0.0760043
0.0822284
0.0866176
0.0893151
0.0904303
0.0900425
0.0882032
0.084935
0.0802283
0.07403
0.0662026
0.0564012
0.043972
0.0286613
0.0136143
0.369211
0.328154
0.280641
0.232318
0.185447
0.141892
0.102885
0.0685343
0.0382281
0.0112479
0.0125819
0.0322534
0.0483563
0.0614543
0.0719536
0.0801636
0.0863266
0.0906338
0.0932341
0.0942405
0.0937334
0.0917624
0.0883455
0.083464
0.0770499
0.0689431
0.0587639
0.0458104
0.0297997
0.0140444
0.369407
0.328629
0.281141
0.232612
0.185305
0.141121
0.101355
0.066192
0.0350838
0.00735995
0.0168593
0.0366612
0.0528083
0.0658862
0.0763197
0.0844331
0.0904806
0.0946616
0.0971308
0.0980041
0.0973623
0.0952529
0.0916881
0.0866392
0.0800222
0.0716523
0.0611127
0.0476501
0.030949
0.0144835
0.369546
0.328945
0.281357
0.232494
0.184624
0.139699
0.0990912
0.0630654
0.0311418
0.00269646
0.0217241
0.0415285
0.0576022
0.070555
0.0808315
0.0887714
0.0946401
0.098645
0.100945
0.10166
0.100868
0.098614
0.0949045
0.0896995
0.082898
0.0742886
0.0634152
0.0494697
0.0320992
0.0149299
0.369606
0.329037
0.281181
0.231808
0.183213
0.137409
0.0958641
0.058932
0.0262015
0.0028927
0.0272502
0.0468891
0.0627397
0.0754376
0.0854471
0.0931229
0.0987402
0.102513
0.104603
0.10513
0.104172
0.10177
0.0979215
0.0925761
0.0856145
0.0767978
0.0656288
0.051241
0.0332375
0.015381
0.36957
0.328855
0.280502
0.230389
0.180856
0.134009
0.091427
0.0535651
0.0200765
0.00940967
0.0334516
0.052714
0.0681595
0.0804492
0.0900661
0.0973768
0.102664
0.106145
0.107983
0.108295
0.107158
0.104605
0.100627
0.0951628
0.0880735
0.079093
0.0676819
0.0529128
0.0343362
0.01583
0.369343
0.328163
0.278971
0.227789
0.177043
0.128961
0.0852587
0.0464948
0.0123746
0.0170438
0.0404432
0.0590512
0.0738607
0.0855542
0.0946279
0.101455
0.106322
0.109443
0.110981
0.111047
0.109712
0.107005
0.102909
0.0973489
0.0901696
0.0810784
0.0694947
0.0544285
0.0353681
0.0162696
0.368953
0.326998
0.27652
0.223849
0.171559
0.122051
0.0772021
0.0376651
0.00316923
0.0255079
0.0478903
0.0655392
0.0794702
0.0903784
0.0987643
0.105
0.109366
0.112073
0.113272
0.113072
0.111534
0.108681
0.104488
0.0988673
0.09165
0.0825197
0.0708596
0.0556213
0.0362246
0.0166631
0.367885
0.324178
0.271597
0.216781
0.162532
0.111444
0.0655551
0.025574
0.00868706
0.0356128
0.0564101
0.0726554
0.085363
0.0952194
0.102712
0.108198
0.111941
0.114137
0.114928
0.114408
0.112632
0.109613
0.105319
0.0996532
0.092435
0.0833305
0.0716949
0.0564297
0.036881
0.0169916
0.366678
0.320959
0.265461
0.207887
0.151399
0.098858
0.0524172
0.0127479
0.0200046
0.0446222
0.0634466
0.0780227
0.0893334
0.098032
0.104574
0.109286
0.112407
0.114113
0.114528
0.113733
0.111773
0.108652
0.104332
0.0987101
0.0915972
0.0826508
0.0712164
0.0561789
0.0368394
0.0170756
0.361989
0.310193
0.249551
0.187977
0.129004
0.075492
0.0295587
0.0091999
0.0372044
0.0581016
0.0739109
0.0860347
0.0953455
0.102409
0.10761
0.111223
0.113445
0.114418
0.114242
0.112983
0.11067
0.107301
0.102828
0.0971502
0.0900763
0.0812675
0.0700763
0.0553914
0.036487
0.0169311
0.358829
0.303498
0.237238
0.172443
0.112952
0.061435
0.0200531
0.0173445
0.040199
0.057625
0.0709032
0.0811628
0.0891053
0.0951767
0.099677
0.102817
0.104751
0.105589
0.105408
0.104256
0.102152
0.0990849
0.0950051
0.0898074
0.083304
0.0751659
0.0647853
0.0511601
0.0336753
0.0159655
0.331825
0.255554
0.180805
0.113831
0.0582818
0.0206867
0.0315447
0.0522248
0.0676932
0.0791761
0.0878983
0.094589
0.0996685
0.103394
0.105936
0.107419
0.107933
0.107544
0.106297
0.104219
0.101315
0.0975673
0.0929253
0.0872934
0.0805035
0.0722585
0.06199
0.0487345
0.0319359
0.0144335
0.31579
0.23738
0.165086
0.113551
0.0759575
0.0485376
0.0316803
0.0270478
0.0316139
0.0391684
0.0468342
0.0537736
0.0597548
0.0647319
0.0687245
0.0717762
0.0739357
0.0752488
0.0757533
0.0754775
0.0744369
0.0726322
0.0700423
0.0666143
0.0622454
0.056744
0.0497234
0.0404581
0.0283446
0.0152852
0.100131
0.123867
0.116706
0.0893402
0.0600317
0.0399065
0.0354034
0.0420946
0.0513096
0.059873
0.0671617
0.0731328
0.0778548
0.0814134
0.0838926
0.0853687
0.0859075
0.0855625
0.0843741
0.0823684
0.0795557
0.0759272
0.0714485
0.0660487
0.0596033
0.0519067
0.0426406
0.0314685
0.0187962
0.00678198
0.0846594
0.127524
0.133809
0.121351
0.100638
0.0789251
0.0591695
0.0423341
0.0288031
0.0195893
0.0170097
0.0205509
0.0261895
0.0317542
0.0365872
0.0405134
0.0435045
0.0455796
0.0467693
0.0471026
0.0466001
0.0452689
0.0430982
0.0400542
0.036075
0.0310754
0.0249988
0.0180056
0.0108458
0.00486237
0.0314934
0.0570042
0.0707744
0.0692878
0.0585977
0.044342
0.0298528
0.0169177
0.00801775
0.010566
0.0180441
0.0250718
0.0310794
0.036027
0.0399501
0.0428984
0.0449219
0.0460666
0.0463715
0.0458679
0.0445776
0.0425122
0.039672
0.0360465
0.0316189
0.0263861
0.0204273
0.0140788
0.0081916
0.00331518
0.0227087
0.0448715
0.0574689
0.0594538
0.054004
0.0447276
0.0341316
0.0236551
0.013951
0.00536249
0.00363222
0.01004
0.0157804
0.0206
0.0245146
0.0275588
0.0297689
0.0311799
0.0318229
0.0317246
0.0309064
0.0293842
0.0271692
0.024272
0.0207125
0.0165492
0.0119681
0.00747293
0.00399012
0.00165315
0.0132185
0.027584
0.0374485
0.0404402
0.0380396
0.0323463
0.0250867
0.0174405
0.0100493
0.0032097
0.00314185
0.00857097
0.0132491
0.0171641
0.020327
0.0227542
0.0244654
0.0254817
0.0258246
0.0255146
0.0245709
0.023012
0.0208585
0.0181392
0.0149053
0.0112642
0.00747123
0.00409609
0.00201864
0.000967545
0.00931471
0.0197351
0.02708
0.0298166
0.0287738
0.0252101
0.0202363
0.0147036
0.00914102
0.00382294
0.00113442
0.00554505
0.009385
0.0126228
0.0152462
0.0172529
0.0186482
0.0194428
0.0196509
0.0192891
0.0183762
0.0169342
0.0149919
0.0125927
0.00980969
0.00678142
0.00380132
0.00146322
0.000607959
0.000503396
0.00664082
0.0139546
0.0191421
0.0211725
0.0206414
0.0183427
0.0149539
0.0110307
0.00695395
0.00294852
0.000852061
0.00431359
0.00736121
0.00994809
0.0120434
0.0136299
0.0147012
0.0152595
0.0153131
0.0148754
0.0139647
0.0126059
0.0108338
0.00870184
0.00629748
0.00377661
0.00144679
0.000124331
0.00033346
0.000334978
0.00506258
0.0103885
0.0139667
0.0152432
0.0147839
0.0131725
0.0108217
0.00806012
0.00512473
0.00217033
0.000693137
0.00335407
0.00573071
0.00776435
0.00941208
0.0106461
0.0114515
0.0118236
0.0117661
0.0112897
0.0104122
0.00915969
0.00757079
0.0057046
0.00365557
0.00158613
0.000198398
0.00115067
0.000740825
0.000262301
0.00399319
0.0079163
0.0102956
0.0108907
0.0103028
0.00903651
0.00735414
0.00542286
0.00335801
0.00124171
0.000851927
0.00283573
0.00463491
0.00618671
0.00744209
0.00836678
0.00893991
0.00915194
0.00900278
0.00850073
0.00766239
0.00651418
0.00509613
0.00346935
0.00173009
4.48368e-05
0.00130094
0.00179067
0.000978732
0.000243581
0.00326334
0.00621588
0.00772448
0.00775983
0.00697118
0.00584998
0.00458407
0.00323407
0.0018206
0.000360199
0.00111138
0.00253487
0.00384702
0.00498722
0.0059051
0.00656335
0.00693763
0.00701504
0.00679264
0.00627655
0.00548193
0.00443442
0.00317362
0.00176
0.000288026
0.00108348
0.00206823
0.00220648
0.00111618
0.000236836
0.00273796
0.00499695
0.00587228
0.00546577
0.00446544
0.00337825
0.00236323
0.00141507
0.000484374
0.000466828
0.00143957
0.00240302
0.00330696
0.00409696
0.0047247
0.00515263
0.00535489
0.00531661
0.0050328
0.00450771
0.00375483
0.00279828
0.00167592
0.000445883
0.00080013
0.00190825
0.00261192
0.00248233
0.00119541
0.000234875
0.00234963
0.00410759
0.00452373
0.00377848
0.00258429
0.00147299
0.000601333
7.3365e-05
0.000649058
0.00120763
0.00178565
0.00237518
0.00294032
0.00343501
0.00381522
0.00404509
0.00409884
0.0039607
0.00362439
0.00309256
0.00237699
0.00149978
0.000496365
0.000577831
0.00163372
0.00252919
0.00301024
0.00267418
0.00124522
0.000232673
0.00205415
0.00344381
0.0035268
0.00252686
0.00116731
1.56226e-05
0.000791423
0.0012812
0.00159849
0.00185915
0.00212715
0.00241503
0.00270107
0.00294844
0.0031187
0.00317893
0.0031045
0.0028797
0.00249749
0.00195924
0.00127506
0.000464871
0.000438271
0.00138066
0.00228137
0.00300569
0.00330983
0.00281274
0.00127914
0.000229183
0.00182454
0.00294029
0.00278217
0.00159439
0.000105632
0.00112249
0.00188322
0.00225284
0.0023856
0.002422
0.0024482
0.00249444
0.00255222
0.00259397
0.00258734
0.00250307
0.00231844
0.00201838
0.00159557
0.00105046
0.000391564
0.00036306
0.00118157
0.00201602
0.00279098
0.0033776
0.00354032
0.00291602
0.00130403
0.000224142
0.00164285
0.00255279
0.00222113
0.000897844
0.000704721
0.00198239
0.00273576
0.00303045
0.0030331
0.00290208
0.00274098
0.0025949
0.00246719
0.0023391
0.00218439
0.00197775
0.00169878
0.00133348
0.000874615
0.000321953
0.000317152
0.00102538
0.00177499
0.00252206
0.00319546
0.00367118
0.00372005
0.00299411
0.00132278
0.00021798
0.00149698
0.00225118
0.00179598
0.000378158
0.00130398
0.00263564
0.00339778
0.00364885
0.00356171
0.00330709
0.00300189
0.00270365
0.00242615
0.00215868
0.0018808
0.00157119
0.00121192
0.000790294
0.000299436
0.000261203
0.00088442
0.00155563
0.00224992
0.00292658
0.00351814
0.00390428
0.00386086
0.00305287
0.0013366
0.00021121
0.00137838
0.00201419
0.00147271
3.14848e-05
0.00174865
0.00312775
0.00390782
0.00413708
0.00399009
0.00364544
0.00323021
0.00281235
0.00241467
0.00203356
0.00165392
0.00125821
0.000831014
0.000361027
0.000158035
0.00072619
0.00133773
0.00197994
0.00263009
0.00325023
0.00377582
0.00408937
0.00397059
0.00309588
0.0013459
0.000204318
0.00128094
0.00182653
0.0012267
0.000297252
0.0020742
0.00349344
0.0042964
0.00451923
0.00433446
0.00392534
0.00342693
0.00291577
0.00242232
0.00194919
0.00148605
0.00101883
0.000534541
2.33122e-05
0.000520018
0.00109566
0.00169899
0.00231864
0.00293377
0.00350863
0.00398099
0.00423547
0.00405474
0.00312552
0.00135085
0.00019765
0.00120009
0.00167697
0.00103983
0.000504265
0.00230749
0.00375971
0.00458786
0.00481492
0.0046086
0.00415456
0.00359412
0.00301087
0.00244169
0.00189456
0.00136337
0.000837215
0.000305285
0.000240738
0.000804917
0.00138788
0.00198561
0.00258785
0.00317525
0.00371385
0.0041432
0.00434937
0.0041174
0.0031435
0.00135159
0.000191419
0.00113237
0.00155711
0.000898618
0.000651565
0.00246904
0.00394779
0.00480174
0.00504009
0.00482411
0.00434019
0.00373441
0.00309609
0.00246757
0.00186142
0.0012752
0.000700807
0.000129455
0.000445575
0.00102767
0.00161753
0.00221158
0.00280041
0.00336588
0.00387541
0.0042699
0.00443637
0.00416177
0.00315126
0.0013483
0.000185768
0.00107518
0.00146057
0.000792817
0.000752479
0.00257469
0.00407422
0.00495351
0.00520778
0.00499084
0.00448859
0.00385059
0.00317088
0.00249637
0.00184357
0.00121324
0.00059971
3.98838e-06
0.000603016
0.0012003
0.00179646
0.00238816
0.00296666
0.00351475
0.00400093
0.00436706
0.00450074
0.00419049
0.00315003
0.00134129
0.00018077
0.00102648
0.00138247
0.000714598
0.000817451
0.00263681
0.00415203
0.00505549
0.00532864
0.00511711
0.00460537
0.00394548
0.00323532
0.00252567
0.00183644
0.00117109
0.000526126
0.000103817
0.000722547
0.00133255
0.00193423
0.00252447
0.00309498
0.00362927
0.00409662
0.00443957
0.00454599
0.0042058
0.00314096
0.00133088
0.00017644
0.000984675
0.00131903
0.00065788
0.000854597
0.00266507
0.00419148
0.00511758
0.00541135
0.00520988
0.00469544
0.00402176
0.00328989
0.00255391
0.00183661
0.00114383
0.000473909
0.000177077
0.000811786
0.00143225
0.00203865
0.00262795
0.00319221
0.00371545
0.00416755
0.00449144
0.00457509
0.0042096
0.00312505
0.00131741
0.000172745
0.000948484
0.00126728
0.000617944
0.000870262
0.00266706
0.00420072
0.00514772
0.00546304
0.00527497
0.00476299
0.00408191
0.0033353
0.00258011
0.0018416
0.00112767
0.000438222
0.000229392
0.000876862
0.00150576
0.00211604
0.00270467
0.00326396
0.00377827
0.00421793
0.00452607
0.00459055
0.00420362
0.00310328
0.00130127
0.000169678
0.000916918
0.00122485
0.000591076
0.000869419
0.00264874
0.00418623
0.00515231
0.00548952
0.00531722
0.00481166
0.00412814
0.0033724
0.00260373
0.00184962
0.0011197
0.000415275
0.000265227
0.00092269
0.00155823
0.00217155
0.0027596
0.00331481
0.00382185
0.00425127
0.00454628
0.0045945
0.00418932
0.00307652
0.00128284
0.000167211
0.000889163
0.00118989
0.000574352
0.000855976
0.00261486
0.00415321
0.00513652
0.00549556
0.00534068
0.00484454
0.00416248
0.003402
0.00262452
0.00185938
0.00111774
0.000402109
0.000288157
0.000953226
0.0015938
0.00220936
0.00279679
0.0033486
0.0038496
0.0042705
0.00455447
0.00458881
0.004168
0.00304556
0.0012625
0.000165317
0.000864554
0.00116093
0.000565485
0.000833007
0.00256919
0.00410581
0.00510456
0.00548506
0.0053487
0.00486421
0.00418668
0.00342498
0.00264241
0.00186995
0.0011201
0.000396395
0.000301004
0.000971647
0.00161587
0.00223291
0.00281959
0.00336843
0.00386434
0.00427808
0.00455267
0.00457504
0.00414081
0.00301111
0.00124055
0.000163943
0.000842572
0.00113676
0.000562654
0.000802947
0.00251466
0.00404737
0.00505984
0.00546123
0.00534407
0.00487293
0.00420226
0.00344215
0.00265747
0.00188069
0.0011255
0.000396323
0.000305998
0.000980499
0.00162715
0.002245
0.00283074
0.0033769
0.00386842
0.00427606
0.0045426
0.00455457
0.00410875
0.00297379
0.00121731
0.000163036
0.000822784
0.00111647
0.000564423
0.000767699
0.00245368
0.00398056
0.00500511
0.00542671
0.00532911
0.00487253
0.00421057
0.00345424
0.00266984
0.00189119
0.001133
0.00040048
0.000304928
0.000981825
0.00162986
0.00224789
0.00283249
0.00337615
0.00386381
0.00426617
0.00452571
0.00452856
0.00407266
0.00293417
0.00119306
0.000162582
0.00080484
0.00109927
0.000569666
0.00072877
0.0023881
0.00390753
0.00494262
0.00538365
0.00530576
0.00486459
0.00421274
0.00346192
0.00267972
0.00190115
0.00114186
0.000407766
0.000299214
0.000977272
0.0016258
0.00224344
0.00282669
0.00336797
0.00385216
0.00424986
0.00450325
0.004498
0.0040333
0.00289272
0.00116804
0.000162535
0.000788459
0.00108456
0.000577479
0.000687353
0.00231939
0.00383
0.00487421
0.00533384
0.00527558
0.00485046
0.00420975
0.0034658
0.00268732
0.00191042
0.00115157
0.000417326
0.000289959
0.000968164
0.0016164
0.00223317
0.00281485
0.00335379
0.00383481
0.00422835
0.00447627
0.00446374
0.00399131
0.00284989
0.00114247
0.000162855
0.000773396
0.00107188
0.000587145
0.000644375
0.00224875
0.00374935
0.00480135
0.00527871
0.00523991
0.00483122
0.00420247
0.00346643
0.00269286
0.00191887
0.00116173
0.000428511
0.000278052
0.000955539
0.00160285
0.00221833
0.00279822
0.00333484
0.00381289
0.00420266
0.00444562
0.00442652
0.00394725
0.00280602
0.00111652
0.00016349
0.000759471
0.00106079
0.000598123
0.000600556
0.0021771
0.00366669
0.00472525
0.00521948
0.00519985
0.00480781
0.00419161
0.00346427
0.00269656
0.00192649
0.00117204
0.000440799
0.000264185
0.000940245
0.00158608
0.00219989
0.00277784
0.00331211
0.00378734
0.00417365
0.00441205
0.00438694
0.00390159
0.00276143
0.00109036
0.000164407
0.000746518
0.00105101
0.000609965
0.00055647
0.00210514
0.00358291
0.00464687
0.00515711
0.0051563
0.00478099
0.00417774
0.00345975
0.00269862
0.00193326
0.00118231
0.000453794
0.000248909
0.000922966
0.00156687
0.0021787
0.00275452
0.00328643
0.00375896
0.00414201
0.00437619
0.0043455
0.00385472
0.00271638
0.00106413
0.000165568
0.000734397
0.00104227
0.000622333
0.000512552
0.00203344
0.00349869
0.00456701
0.00509241
0.00511001
0.00475144
0.00416141
0.00345322
0.00269923
0.0019392
0.00119239
0.00046721
0.000232664
0.000904239
0.00154583
0.00215542
0.00272896
0.00325848
0.00372837
0.00410833
0.00433857
0.00430267
0.00380698
0.00267109
0.00103794
0.000166943
0.000723019
0.00103435
0.000634946
0.000469117
0.00196245
0.00341458