/*--------------------------------*- C++ -*----------------------------------*\
  =========                 |
  \\      /  F ield         | OpenFOAM: The Open Source CFD Toolbox
   \\    /   O peration     | Website:  https://openfoam.org
    \\  /    A nd           | Version:  8
     \\/     M anipulation  |
\*---------------------------------------------------------------------------*/
FoamFile
{
    version     2.0;
    format      ascii;
    class       volScalarField;
    location    "1";
    object      Ca3;
}
// * * * * * * * * * * * * * * * * * * * * * * * * * * * * * * * * * * * * * //

dimensions      [0 0 0 0 0 0 0];

internalField   nonuniform List<scalar> 
6300
(
0.0373486
0.14313
0.226337
0.292232
0.349234
0.402473
0.455728
0.510885
0.568417
0.628137
0.689688
0.752729
0.816993
0.882265
0.948388
1.01524
1.08273
1.15079
1.21937
1.28845
1.35799
1.42801
1.49849
1.56946
1.64097
1.71334
1.78809
1.87322
2.0091
2.43002
0.0725167
0.178498
0.260934
0.329176
0.387892
0.442178
0.496098
0.551689
0.609445
0.669155
0.730432
0.79294
0.856418
0.920668
0.985544
1.05094
1.11676
1.18296
1.2495
1.31633
1.38345
1.45083
1.51847
1.58637
1.65454
1.72325
1.79403
1.87503
2.008
2.41766
0.0795486
0.176661
0.264235
0.342264
0.408629
0.466875
0.522189
0.578028
0.635841
0.695786
0.757496
0.820532
0.884532
0.949218
1.01439
1.07989
1.14562
1.21149
1.27745
1.34346
1.4095
1.47557
1.54168
1.60786
1.67419
1.74101
1.80987
1.88871
2.01762
2.41607
0.0936242
0.1815
0.267898
0.349361
0.420854
0.483252
0.540805
0.597561
0.655703
0.715809
0.777647
0.84079
0.90485
0.969528
1.0346
1.0999
1.16528
1.23062
1.29557
1.36003
1.42439
1.48874
1.55308
1.6174
1.68172
1.74632
1.81296
1.89008
2.01916
2.40875
0.108215
0.189648
0.272927
0.354183
0.427463
0.492031
0.551109
0.608566
0.666847
0.7268
0.788361
0.851169
0.914864
0.979161
1.04384
1.10872
1.1737
1.23864
1.30279
1.36632
1.42989
1.49348
1.55707
1.62066
1.68425
1.74814
1.81412
1.8909
2.02084
2.40268
0.122462
0.199547
0.280156
0.3605
0.434511
0.500547
0.560935
0.619174
0.677761
0.737717
0.799112
0.861665
0.925047
0.988986
1.05327
1.11774
1.18227
1.24677
1.30951
1.37224
1.43501
1.49782
1.56066
1.6235
1.68637
1.74957
1.815
1.89163
2.02261
2.39669
0.136386
0.210376
0.288918
0.368224
0.442375
0.509309
0.570705
0.629669
0.688617
0.74866
0.809968
0.872322
0.935433
0.999045
1.06296
1.12703
1.19112
1.25404
1.31592
1.37786
1.43985
1.50189
1.56398
1.62609
1.68826
1.75084
1.81578
1.8924
2.02445
2.39075
0.150044
0.221681
0.298629
0.37696
0.450945
0.518374
0.580508
0.640088
0.699395
0.759563
0.820828
0.883027
0.945899
1.00921
1.07278
1.13645
1.20011
1.26112
1.32219
1.38333
1.44454
1.50581
1.56716
1.62856
1.69007
1.75204
1.81655
1.89324
2.02632
2.38481
0.163492
0.233268
0.308968
0.386441
0.460118
0.527784
0.590439
0.650525
0.710165
0.770471
0.831723
0.893794
0.956456
1.01949
1.08273
1.14602
1.20789
1.26809
1.32835
1.38869
1.44911
1.50962
1.57023
1.63093
1.69179
1.7532
1.81732
1.89413
2.0282
2.37886
0.17678
0.245059
0.319765
0.396492
0.469801
0.537539
0.600553
0.661045
0.720983
0.781433
0.842689
0.904656
0.967126
1.0299
1.09282
1.15575
1.21557
1.27494
1.33439
1.39393
1.45357
1.51332
1.5732
1.63321
1.69344
1.75431
1.81809
1.89505
2.03004
2.37287
0.189952
0.257023
0.330925
0.407001
0.479918
0.547623
0.610874
0.671693
0.731891
0.79248
0.853751
0.915629
0.977925
1.04046
1.10307
1.16469
1.22317
1.28171
1.34033
1.39907
1.45792
1.51692
1.57608
1.63542
1.69503
1.75537
1.81883
1.89598
2.03183
2.36683
0.203049
0.269152
0.342396
0.417894
0.490414
0.558013
0.621416
0.682491
0.742919
0.803636
0.864928
0.926728
0.988863
1.05116
1.11348
1.17306
1.23069
1.28839
1.34619
1.40411
1.46218
1.52043
1.57887
1.63754
1.69654
1.75638
1.81954
1.89691
2.03354
2.36073
0.216109
0.281447
0.354149
0.429126
0.501245
0.568693
0.632182
0.693459
0.754083
0.814921
0.876236
0.937965
0.99995
1.06202
1.12405
1.18137
1.23814
1.29499
1.35196
1.40907
1.46635
1.52384
1.58158
1.63958
1.69798
1.75733
1.8202
1.89781
2.03517
2.35457
0.229168
0.293914
0.366166
0.440666
0.512383
0.579644
0.643169
0.704607
0.7654
0.826347
0.887684
0.949351
1.01119
1.07305
1.13381
1.18965
1.24554
1.30153
1.35765
1.41394
1.47044
1.52718
1.5842
1.64154
1.69935
1.7582
1.82081
1.89867
2.03669
2.34833
0.242262
0.306562
0.37844
0.452493
0.523809
0.590855
0.654378
0.715941
0.776882
0.837927
0.899286
0.960893
1.0226
1.08424
1.14295
1.19788
1.25288
1.308
1.36327
1.41874
1.47444
1.53043
1.58673
1.64341
1.70063
1.75901
1.82136
1.89947
2.0381
2.34202
0.255421
0.3194
0.390964
0.464594
0.535504
0.602316
0.665807
0.727468
0.788536
0.849671
0.911051
0.972601
1.03417
1.09561
1.15208
1.20609
1.26018
1.31441
1.36882
1.42345
1.47836
1.53358
1.58917
1.6452
1.70182
1.75972
1.82183
1.9002
2.03938
2.33561
0.268677
0.33244
0.403739
0.476961
0.547461
0.614021
0.677456
0.739192
0.800371
0.861589
0.922987
0.984482
1.04592
1.10716
1.1612
1.21426
1.26744
1.32077
1.3743
1.4281
1.48219
1.53665
1.59152
1.64688
1.70291
1.76033
1.82221
1.90086
2.04054
2.32912
0.282057
0.345692
0.416766
0.489587
0.559671
0.625963
0.689324
0.751114
0.812393
0.873686
0.935101
0.996545
1.05786
1.11831
1.17032
1.22242
1.27465
1.32707
1.37972
1.43266
1.48594
1.53962
1.59376
1.64845
1.70389
1.76084
1.82249
1.90143
2.04154
2.32252
0.295587
0.359169
0.430046
0.502472
0.572131
0.638143
0.701411
0.763241
0.824607
0.885969
0.947403
1.0088
1.06999
1.12843
1.17943
1.23055
1.28183
1.33332
1.38507
1.43715
1.4896
1.5425
1.59591
1.64992
1.70476
1.76123
1.82266
1.9019
2.0424
2.31582
0.309291
0.372878
0.443583
0.515616
0.58484
0.650554
0.713718
0.775576
0.837022
0.898449
0.959899
1.02124
1.08232
1.13858
1.18855
1.23867
1.28898
1.33952
1.39036
1.44156
1.49317
1.54528
1.59794
1.65127
1.7055
1.7615
1.82272
1.90226
2.0431
2.30901
0.323193
0.386834
0.457383
0.529018
0.597795
0.663201
0.726246
0.788124
0.84964
0.911129
0.972595
1.03389
1.09485
1.14876
1.19768
1.24677
1.29608
1.34567
1.39558
1.44589
1.49666
1.54795
1.59986
1.6525
1.70612
1.76164
1.82265
1.9025
2.04363
2.30207
0.337314
0.401049
0.471451
0.542681
0.611001
0.676086
0.739
0.800885
0.862469
0.924017
0.985501
1.04676
1.1076
1.15897
1.20681
1.25486
1.30316
1.35176
1.40073
1.45013
1.50004
1.55052
1.60166
1.65359
1.70659
1.76162
1.82245
1.90261
2.04397
2.29501
0.351673
0.415534
0.485795
0.556611
0.624458
0.68921
0.751984
0.81387
0.875514
0.937122
0.998625
1.05984
1.12058
1.16921
1.21594
1.26293
1.31019
1.3578
1.40581
1.45429
1.50331
1.55296
1.60333
1.65454
1.70691
1.76147
1.8221
1.90259
2.04414
2.28781
0.36629
0.4303
0.500421
0.570812
0.638172
0.702577
0.765202
0.827083
0.888783
0.95045
1.01197
1.07315
1.13379
1.17948
1.22509
1.27098
1.31719
1.36378
1.41081
1.45835
1.50648
1.55528
1.60486
1.65534
1.70707
1.76115
1.8216
1.90241
2.0441
2.28047
0.381183
0.445359
0.515338
0.58529
0.652147
0.716195
0.77866
0.840528
0.902286
0.964009
1.02556
1.0867
1.14565
1.18978
1.23424
1.27901
1.32415
1.36971
1.41574
1.46233
1.50954
1.55748
1.60624
1.65599
1.70707
1.76066
1.82093
1.90208
2.04385
2.27298
0.396368
0.460725
0.530555
0.600053
0.666393
0.730068
0.792366
0.854217
0.916027
0.977811
1.03938
1.1005
1.15721
1.20012
1.24339
1.28703
1.33107
1.37557
1.42058
1.46619
1.51247
1.55953
1.60747
1.65647
1.70689
1.75999
1.82009
1.90156
2.04338
2.26532
0.411864
0.476409
0.546084
0.615111
0.680914
0.744203
0.806325
0.868156
0.930017
0.991861
1.05346
1.11456
1.16884
1.21048
1.25255
1.29502
1.33794
1.38136
1.42534
1.46995
1.51529
1.56145
1.60854
1.65677
1.70653
1.75913
1.81906
1.90087
2.04268
2.2575
0.427688
0.492426
0.561933
0.63047
0.695719
0.758612
0.820549
0.882353
0.944265
1.00617
1.06781
1.12888
1.18052
1.22088
1.2617
1.30299
1.34477
1.38708
1.43
1.4736
1.51796
1.56321
1.60945
1.65688
1.70597
1.75808
1.81785
1.89998
2.04174
2.24949
0.443855
0.508786
0.578116
0.646145
0.710821
0.7733
0.835046
0.896821
0.958783
1.02076
1.08243
1.14349
1.19227
1.2313
1.27086
1.31093
1.35153
1.39272
1.43456
1.47712
1.5205
1.5648
1.61017
1.65681
1.7052
1.75681
1.81643
1.89888
2.04054
2.24129
0.460382
0.525507
0.594645
0.662144
0.726228
0.788283
0.849827
0.911569
0.973583
1.03562
1.09734
1.1584
1.20406
1.24174
1.28001
1.31883
1.35824
1.39828
1.43902
1.48051
1.52288
1.56623
1.6107
1.65653
1.70422
1.75532
1.81479
1.89757
2.03908
2.23288
0.477287
0.542601
0.611533
0.678482
0.741954
0.803569
0.864905
0.926611
0.988677
1.05079
1.11256
1.17361
1.21592
1.25221
1.28914
1.3267
1.36489
1.40375
1.44335
1.48377
1.52511
1.56748
1.61104
1.65604
1.70302
1.7536
1.81292
1.89602
2.03733
2.22426
0.494587
0.560086
0.628795
0.695173
0.758012
0.819174
0.880293
0.941962
1.00408
1.06627
1.12809
1.18915
1.22782
1.26269
1.29827
1.33452
1.37146
1.40912
1.44757
1.48689
1.52718
1.56855
1.61117
1.65531
1.70157
1.75165
1.81081
1.89423
2.03528
2.21541
0.5123
0.577975
0.646448
0.712231
0.774417
0.835112
0.896009
0.957636
1.01981
1.08208
1.14396
1.20504
1.23977
1.27317
1.30736
1.34229
1.37795
1.41439
1.45166
1.48985
1.52906
1.56941
1.61109
1.65436
1.69988
1.74943
1.80845
1.89217
2.03292
2.20631
0.530443
0.59629
0.664508
0.729672
0.791186
0.851399
0.912065
0.973651
1.03588
1.09824
1.16019
1.22086
1.25175
1.28366
1.31643
1.34999
1.38435
1.41954
1.45561
1.49265
1.53076
1.57008
1.61077
1.65316
1.69793
1.74696
1.80582
1.88984
2.03024
2.19696
0.549037
0.615047
0.682991
0.747516
0.808337
0.868055
0.928483
0.990027
1.05232
1.11477
1.1768
1.2345
1.26377
1.29414
1.32545
1.35762
1.39065
1.42456
1.45941
1.49528
1.53227
1.57051
1.61022
1.65171
1.69571
1.74421
1.80292
1.88722
2.02721
2.18733
0.568103
0.634266
0.701921
0.765783
0.82589
0.885099
0.945285
1.00678
1.06914
1.13169
1.1938
1.24821
1.2758
1.3046
1.33442
1.36517
1.39684
1.42945
1.46305
1.49771
1.53356
1.57073
1.60942
1.64999
1.69321
1.74117
1.79974
1.8843
2.02383
2.17742
0.587662
0.653969
0.721317
0.784495
0.843867
0.902555
0.962493
1.02395
1.08638
1.14903
1.21123
1.26196
1.28784
1.31503
1.34332
1.37262
1.40291
1.43418
1.46651
1.49997
1.53465
1.57071
1.60837
1.64799
1.69043
1.73785
1.79625
1.88106
2.02007
2.16722
0.60774
0.67418
0.741204
0.803675
0.862293
0.920448
0.980132
1.04155
1.10405
1.16681
1.22911
1.27575
1.29987
1.32541
1.35214
1.37996
1.40883
1.43876
1.46979
1.502
1.5355
1.57044
1.60705
1.64572
1.68735
1.73421
1.79245
1.87749
2.01591
2.15669
0.628361
0.694924
0.761608
0.82335
0.881195
0.938806
0.998236
1.05962
1.1222
1.18508
1.24749
1.28955
1.31186
1.33572
1.36086
1.38716
1.4146
1.44315
1.47287
1.50382
1.53612
1.56991
1.60544
1.64315
1.68397
1.73026
1.78834
1.87357
2.01135
2.14583
0.649554
0.716231
0.782558
0.84355
0.900606
0.957663
1.01684
1.07818
1.14086
1.20387
1.26639
1.30334
1.32381
1.34593
1.36945
1.39422
1.42019
1.44735
1.47574
1.50541
1.53649
1.56912
1.60357
1.64028
1.68027
1.72599
1.78389
1.8693
2.00636
2.13462
0.671351
0.738131
0.804085
0.864308
0.920558
0.977056
1.03598
1.0973
1.16007
1.22322
1.28587
1.3171
1.33566
1.35602
1.37788
1.4011
1.42558
1.45134
1.47837
1.50676
1.5366
1.56806
1.6014
1.63711
1.67625
1.7214
1.77909
1.86464
2.00094
2.12305
0.693788
0.76066
0.826228
0.885663
0.941094
0.99703
1.0557
1.11701
1.17989
1.24319
1.30596
1.33077
1.3474
1.36596
1.38614
1.40777
1.43076
1.45509
1.48077
1.50785
1.53644
1.56671
1.59893
1.63363
1.67192
1.71647
1.77396
1.85961
1.99505
2.1111
0.716903
0.783858
0.849026
0.907657
0.96226
1.01763
1.07606
1.13737
1.20037
1.26383
1.32673
1.34431
1.35897
1.3757
1.39418
1.41422
1.43571
1.4586
1.48291
1.50868
1.53602
1.56508
1.59618
1.62984
1.66726
1.7112
1.76847
1.85418
1.9887
2.09875
0.740743
0.80777
0.872526
0.930341
0.984107
1.03892
1.09713
1.15844
1.22158
1.28521
1.34795
1.35768
1.37032
1.38521
1.40197
1.4204
1.44038
1.46184
1.48478
1.50924
1.53531
1.56318
1.59314
1.62576
1.66229
1.70562
1.76263
1.84835
1.98185
2.08599
0.765358
0.832448
0.896782
0.953771
1.0067
1.06097
1.11897
1.18032
1.24361
1.30741
1.36331
1.37079
1.38139
1.39442
1.40947
1.4263
1.44476
1.4648
1.48637
1.50952
1.53435
1.561
1.58981
1.62138
1.65702
1.6997
1.75644
1.84211
1.97451
2.07281
0.790809
0.857952
0.921857
0.978015
1.03012
1.08386
1.14168
1.20309
1.26655
1.33053
1.37835
1.38356
1.39212
1.40328
1.41662
1.43186
1.44884
1.46745
1.48768
1.50954
1.53311
1.55856
1.58622
1.61673
1.65146
1.69348
1.74991
1.83547
1.96666
2.05917
0.817166
0.884355
0.947826
1.00316
1.05444
1.10769
1.16538
1.22688
1.29052
1.35466
1.39296
1.39589
1.40241
1.41173
1.42338
1.43706
1.45257
1.46982
1.48872
1.5093
1.53163
1.55589
1.58239
1.61183
1.64563
1.68697
1.74305
1.82841
1.95828
2.04508
0.844513
0.91174
0.974779
1.02929
1.07979
1.1326
1.19019
1.25182
1.31566
1.37995
1.407
1.40766
1.41218
1.4197
1.42971
1.44187
1.45597
1.47187
1.48949
1.50883
1.52994
1.55301
1.57837
1.60674
1.63959
1.68022
1.73588
1.82095
1.94937
2.0305
0.87295
0.940211
1.00282
1.05654
1.10631
1.15873
1.21629
1.27809
1.34213
1.40653
1.42029
1.41874
1.42131
1.42711
1.43555
1.44627
1.45902
1.47364
1.49002
1.50815
1.52808
1.54998
1.5742
1.60149
1.63338
1.67325
1.72843
1.81311
1.93992
2.01541
0.90261
0.969898
1.0321
1.08505
1.13416
1.18629
1.24389
1.30589
1.37011
1.43455
1.43262
1.42897
1.42972
1.43389
1.44087
1.45024
1.46174
1.47515
1.49037
1.50734
1.52612
1.54687
1.56996
1.59616
1.62707
1.66614
1.72076
1.8049
1.92991
1.99978
0.933629
1.00096
1.06278
1.11504
1.16359
1.21554
1.27328
1.33551
1.39986
1.45574
1.44374
1.43817
1.43726
1.43997
1.44563
1.4538
1.46414
1.47645
1.49057
1.50646
1.52413
1.54378
1.56576
1.59086
1.62076
1.65898
1.71294
1.79637
1.91936
1.98357
0.966273
1.03363
1.09509
1.14674
1.19486
1.24678
1.30475
1.3672
1.43155
1.46742
1.45342
1.44619
1.44385
1.44531
1.44985
1.45696
1.4663
1.47761
1.49073
1.50561
1.52225
1.54082
1.56171
1.58573
1.6146
1.6519
1.70508
1.78759
1.90828
1.96673
1.00068
1.06817
1.12939
1.18061
1.22852
1.2806
1.33889
1.40148
1.46561
1.47681
1.46125
1.45272
1.4493
1.4498
1.45345
1.45972
1.46821
1.47867
1.49091
1.50487
1.52055
1.53811
1.55794
1.58089
1.60871
1.64504
1.69732
1.77867
1.8967
1.94921
1.0377
1.10509
1.16602
1.21687
1.26476
1.31715
1.3757
1.43818
1.50159
1.48384
1.46725
1.4579
1.45377
1.45362
1.45664
1.46227
1.4701
1.47986
1.49135
1.50449
1.51928
1.5359
1.55474
1.57665
1.60342
1.63872
1.68996
1.76986
1.88476
1.93094
1.07685
1.14483
1.20605
1.25717
1.30554
1.35851
1.41725
1.47914
1.51433
1.48684
1.47013
1.46068
1.45642
1.45609
1.45886
1.46415
1.47158
1.48084
1.49177
1.50426
1.51833
1.53413
1.55207
1.57303
1.59881
1.63307
1.68314
1.76131
1.87256
1.91203
1.12234
1.18894
1.24933
1.30015
1.34868
1.40168
1.4596
1.51944
1.51533
1.48853
1.47236
1.46329
1.45926
1.45902
1.46175
1.46689
1.47405
1.48295
1.49342
1.50536
1.51879
1.53387
1.551
1.57108
1.5959
1.62914
1.67795
1.75405
1.8609
1.89248
1.16806
1.2383
1.30175
1.35509
1.40517
1.45823
1.51422
1.54274
1.50403
1.48048
1.46674
1.4595
1.45684
1.45761
1.46107
1.4667
1.47416
1.4832
1.49367
1.50549
1.51867
1.53339
1.55006
1.56956
1.5937
1.6261
1.67369
1.74758
1.84962
1.87331
1.23992
1.29696
1.35336
1.40228
1.44788
1.49456
1.54079
1.53896
1.5054
1.48484
1.47305
1.4671
1.46527
1.46653
1.47022
1.47588
1.48322
1.49201
1.5021
1.51343
1.52602
1.54005
1.55592
1.57455
1.59773
1.62901
1.67508
1.74613
1.84186
1.85401
1.29136
1.37791
1.45057
1.50362
1.54274
1.56678
1.53001
1.49087
1.46795
1.45575
1.45027
1.44916
1.45112
1.45543
1.46158
1.46928
1.47832
1.48852
1.49981
1.51213
1.52555
1.54024
1.55661
1.57554
1.59878
1.62978
1.67496
1.74387
1.83488
1.8406
1.48097
1.45747
1.47504
1.48816
1.49469
1.50209
1.50932
1.50996
1.5043
1.49857
1.49507
1.49392
1.49486
1.49761
1.50194
1.50767
1.51464
1.52272
1.53183
1.54191
1.55302
1.56532
1.57922
1.59556
1.61606
1.64395
1.6851
1.74758
1.82703
1.81624
1.73598
1.59208
1.53185
1.51628
1.51475
1.5139
1.5041
1.48875
1.47679
1.46977
1.46673
1.46667
1.469
1.47328
1.47925
1.48667
1.4954
1.50532
1.51633
1.52843
1.54169
1.55632
1.57278
1.59199
1.61576
1.64744
1.6928
1.75904
1.83852
1.81872
1.63132
1.59213
1.55845
1.52858
1.50877
1.50103
1.50491
1.51728
1.53384
1.54954
1.5583
1.55936
1.55822
1.55781
1.55891
1.56164
1.5659
1.57157
1.57856
1.58681
1.59632
1.60726
1.62001
1.63539
1.65509
1.68226
1.72229
1.78167
1.85157
1.81825
1.7021
1.68997
1.65508
1.61744
1.58772
1.57081
1.56698
1.5729
1.58152
1.57777
1.56955
1.5639
1.56092
1.56022
1.56152
1.56455
1.56916
1.57516
1.58246
1.59098
1.60075
1.61191
1.62484
1.64036
1.66007
1.68708
1.72667
1.78505
1.85251
1.81422
1.68473
1.69773
1.67995
1.64555
1.61151
1.58762
1.57691
1.57759
1.58605
1.5987
1.60392
1.59809
1.59445
1.59296
1.59332
1.59533
1.5988
1.6036
1.60962
1.61679
1.62515
1.63481
1.64614
1.65992
1.67775
1.70266
1.73992
1.79555
1.85916
1.81462
1.68682
1.7169
1.71137
1.68109
1.64535
1.61707
1.60121
1.59701
1.60123
1.61052
1.61248
1.60758
1.60503
1.60436
1.60529
1.60764
1.61128
1.61608
1.62195
1.62885
1.63681
1.64594
1.65661
1.66959
1.68645
1.71026
1.74626
1.8005
1.86201
1.81345
1.68138
1.72125
1.72617
1.70123
1.66605
1.6355
1.61617
1.60828
1.60912
1.61548
1.62119
1.61745
1.61577
1.61572
1.61706
1.61963
1.6233
1.62799
1.63362
1.64016
1.64761
1.65612
1.66603
1.67812
1.69398
1.71668
1.75155
1.80465
1.86442
1.8126
1.67766
1.72373
1.73652
1.71656
1.68275
1.65114
1.62949
1.61889
1.61702
1.62092
1.62532
1.62274
1.62197
1.62261
1.62443
1.6273
1.63113
1.63584
1.64136
1.64766
1.65475
1.6628
1.67213
1.68353
1.69862
1.72051
1.75462
1.80666
1.86481
1.81117
1.67363
1.72345
1.74216
1.72661
1.69453
1.66264
1.63955
1.62699
1.62308
1.625
1.62811
1.62653
1.62655
1.62778
1.63001
1.63315
1.6371
1.64181
1.64721
1.65328
1.66006
1.66768
1.6765
1.68731
1.70175
1.72302
1.75591
1.80457
1.86399
1.80952
1.67003
1.72217
1.74535
1.73358
1.70326
1.67149
1.64751
1.63356
1.62809
1.62848
1.62959
1.62888
1.62959
1.63134
1.63395
1.63733
1.6414
1.64611
1.65141
1.65729
1.66379
1.67104
1.67942
1.68975
1.70369
1.72449
1.7532
1.80327
1.86343
1.80763
1.66667
1.72022
1.74682
1.73825
1.7096
1.67816
1.65365
1.63872
1.63208
1.63127
1.63037
1.63038
1.63169
1.6339
1.63684
1.64043
1.6446
1.64931
1.65452
1.66022
1.66647
1.6734
1.68142
1.69134
1.70489
1.72164
1.7512
1.80245
1.86298
1.80561
1.66359
1.71797
1.74723
1.74139
1.71427
1.68323
1.65841
1.64278
1.63527
1.632
1.63063
1.63126
1.63309
1.6357
1.63893
1.6427
1.64696
1.65167
1.65681
1.66236
1.66838
1.67505
1.68275
1.69235
1.70287
1.71926
1.74971
1.80193
1.86258
1.8035
1.66077
1.71558
1.74693
1.74344
1.71771
1.68709
1.66209
1.64571
1.63565
1.63137
1.63057
1.63172
1.63398
1.63694
1.64043
1.64437
1.6487
1.65342
1.65848
1.66391
1.66975
1.67619
1.68363
1.69101
1.70041
1.71737
1.74856
1.8016
1.86217
1.80136
1.65816
1.71315
1.74618
1.74474
1.72026
1.69003
1.66229
1.64418
1.63449
1.63063
1.63028
1.63186
1.63449
1.63776
1.64147
1.64556
1.64997
1.65469
1.65971
1.66502
1.6707
1.67695
1.68271
1.68863
1.69837
1.7158
1.74766
1.80139
1.86174
1.79923
1.65577
1.71073
1.74512
1.74548
1.72213
1.68852
1.66084
1.64286
1.63339
1.62985
1.62985
1.63178
1.63472
1.63825
1.64217
1.64638
1.65087
1.6556
1.66057
1.66579
1.67135
1.67622
1.68051
1.68664
1.69665
1.71451
1.74694
1.80127
1.86129
1.79713
1.65355
1.70835
1.74387
1.74583
1.72111
1.68736
1.65967
1.64171
1.63238
1.62905
1.62932
1.63152
1.63474
1.63849
1.64258
1.64691
1.65146
1.65621
1.66114
1.66629
1.67068
1.67427
1.67865
1.68493
1.69519
1.71342
1.74636
1.80121
1.86083
1.79508
1.65149
1.70603
1.74249
1.74589
1.72007
1.68649
1.65875
1.64073
1.63144
1.62825
1.62871
1.63116
1.63459
1.63853
1.64276
1.64721
1.65182
1.65658
1.66149
1.66571
1.66899
1.67259
1.67704
1.68345
1.69394
1.71249
1.7459
1.80121
1.86036
1.7931
1.64956
1.70377
1.74102
1.74566
1.71927
1.68585
1.65802
1.6399
1.63057
1.62746
1.62808
1.63069
1.63431
1.63841
1.64277
1.64731
1.65198
1.65675
1.66112
1.66428
1.66752
1.67113
1.67564
1.68217
1.69284
1.71169
1.74554
1.80124
1.85989
1.79118
1.64777
1.70159
1.7395
1.74438
1.71867
1.68541
1.65746
1.63918
1.62978
1.62669
1.62741
1.63016
1.63393
1.63816
1.64264
1.64726
1.65197
1.65677
1.65992
1.66301
1.66624
1.66985
1.67441
1.68103
1.69188
1.711
1.74525
1.80132
1.85943
1.78933
1.64607
1.69947
1.73795
1.74321
1.71821
1.68512
1.65704
1.63857
1.62906
1.62595
1.62673
1.62959
1.63346
1.63782
1.64239
1.64707
1.65183
1.65585
1.65885
1.66189
1.66508
1.66871
1.67331
1.68002
1.69102
1.7104
1.74503
1.80144
1.85896
1.78754
1.64448
1.69742
1.73639
1.74216
1.71787
1.68495
1.65672
1.63804
1.62838
1.62523
1.62604
1.62897
1.63294
1.63738
1.64204
1.64679
1.65158
1.65494
1.65788
1.66088
1.66405
1.66767
1.67232
1.67911
1.69025
1.70987
1.74486
1.80158
1.8585
1.78583
1.64297
1.69544
1.73482
1.7412
1.71763
1.68489
1.65651
1.6376
1.62777
1.62453
1.62534
1.62833
1.63238
1.63689
1.64161
1.64641
1.65123
1.6541
1.65699
1.65995
1.66311
1.66674
1.67142
1.67829
1.68956
1.70941
1.74474
1.80174
1.85805
1.78417
1.64153
1.69352
1.73324
1.7403
1.71744
1.6849
1.65637
1.63722
1.6272
1.62386
1.62465
1.62767
1.63176
1.63635
1.64112
1.64597
1.65049
1.6533
1.65616
1.65909
1.66223
1.66587
1.67059
1.67752
1.68893
1.709
1.74467
1.80193
1.8576
1.78257
1.64016
1.69165
1.73168
1.73945
1.71731
1.68497
1.65629
1.6369
1.62668
1.62322
1.62396
1.62699
1.63113
1.63576
1.64058
1.64546
1.64977
1.65255
1.65538
1.65829
1.66142
1.66507
1.66982
1.67682
1.68835
1.70863
1.74464
1.80213
1.85716
1.78104
1.63885
1.68983
1.73013
1.73865
1.71721
1.68509
1.65627
1.63662
1.62619
1.62259
1.62329
1.62631
1.63048
1.63514
1.64
1.64492
1.64907
1.65183
1.65463
1.65753
1.66066
1.66432
1.66909
1.67616
1.68781
1.70831
1.74464
1.80235
1.85672
1.77955
1.63759
1.68807
1.72859
1.73787
1.71714
1.68524
1.65629
1.63639
1.62573
1.622
1.62261
1.62562
1.6298
1.6345
1.63939
1.64433
1.64839
1.65112
1.65391
1.6568
1.65993
1.6636
1.66841
1.67554
1.68731
1.70802
1.74466
1.80258
1.85628
1.77811
1.63638
1.68636
1.72706
1.73711
1.71709
1.68542
1.65635
1.6362
1.62531
1.62142
1.62195
1.62493
1.62912
1.63384
1.63875
1.64372
1.64772
1.65044
1.65322
1.6561
1.65923
1.66292
1.66776
1.67496
1.68684
1.70776
1.7447
1.80281
1.85584
1.77672
1.63521
1.68468
1.72555
1.73638
1.71705
1.68563
1.65644
1.63605
1.62491
1.62085
1.62129
1.62425
1.62843
1.63316
1.6381
1.64308
1.64706
1.64977
1.65254
1.65542
1.65856
1.66226
1.66714
1.67439
1.6864
1.70753
1.74477
1.80306
1.85541
1.77537
1.63408
1.68305
1.72404
1.73564
1.71702
1.68585
1.65656
1.63592
1.62454
1.62031
1.62065
1.62356
1.62774
1.63248
1.63743
1.64242
1.64639
1.6491
1.65187
1.65476
1.6579
1.66162
1.66653
1.67386
1.68598
1.70731
1.74485
1.8033
1.85496
1.77406
1.63298
1.68146
1.72256
1.73491
1.71699
1.68609
1.6567
1.63581
1.62419
1.61978
1.62002
1.62288
1.62704
1.63179
1.63675
1.64176
1.64574
1.64845
1.65122
1.65411
1.65727
1.661
1.66595
1.67334
1.68558
1.70712
1.74495
1.80354
1.85452
1.77278
1.63192
1.6799
1.7211
1.7342
1.71695
1.68633
1.65685
1.63573
1.62387
1.61927
1.61941
1.62221
1.62635
1.6311
1.63606
1.64108
1.64509
1.64781
1.65058
1.65347
1.65664
1.6604
1.66538
1.67284
1.6852
1.70694
1.74506
1.80379
1.85408
1.77154
1.63088
1.67838
1.71964
1.73347
1.71691
1.68657
1.65703
1.63567
1.62356
1.61878
1.6188
1.62154
1.62566
1.6304
1.63537
1.64039
1.64444
1.64716
1.64994
1.65285
1.65603
1.65981
1.66483
1.67235
1.68483
1.70677
1.74517
1.80403
1.85362
1.77033
1.62988
1.67689
1.71821
1.73275
1.71687
1.68682
1.65721
1.63562
1.62327
1.61831
1.6182
1.62088
1.62497
1.6297
1.63467
1.6397
1.6438
1.64653
1.64932
1.65223
1.65543
1.65923
1.66429
1.67188
1.68447
1.70662
1.7453
1.80427
1.85316
1.76914
1.6289
1.67543
1.71679
1.73203
1.71681
1.68707
1.65741
1.63559
1.623
1.61784
1.61761
1.62023
1.62429
1.62901
1.63397
1.63901
1.64316
1.64589
1.64869
1.65162
1.65483
1.65866
1.66376
1.67141
1.68413
1.70648
1.74543
1.80451
1.8527
1.76799
1.62794
1.674
1.71538
1.7313
1.71675
1.68732
1.65761
1.63558
1.62275
1.61739
1.61704
1.61958
1.62361
1.62831
1.63328
1.63831
1.64251
1.64527
1.64807
1.65102
1.65425
1.65809
1.66323
1.67095
1.68379
1.70635
1.74556
1.80473
1.85224
1.76685
1.627
1.6726
1.714
1.73056
1.71667
1.68756
1.65782
1.63558
1.6225
1.61695
1.61647
1.61894
1.62293
1.62763
1.63258
1.63762
1.64187
1.64464
1.64746
1.65042
1.65367
1.65754
1.66272
1.6705
1.68346
1.70622
1.74571
1.80495
1.85176
1.76575
1.62608
1.67123
1.71262
1.72983
1.71658
1.68779
1.65804
1.63559
1.62227
1.61653
1.61592
1.61831
1.62226
1.62694
1.63189
1.63693
1.64124
1.64401
1.64685
1.64982
1.65308
1.65698
1.6622
1.67007
1.68314
1.7061
1.74585
1.80517
1.85129
1.76466
1.62519
1.66988
1.71126
1.72909
1.71648
1.68802
1.65826
1.63561
1.62205
1.61612
1.61537
1.61769
1.6216
1.62626
1.6312
1.63623
1.6406
1.64339
1.64625
1.64923
1.65251
1.65644
1.6617
1.66963
1.68283
1.70599
1.74599
1.80538
1.8508
1.7636
1.62431
1.66855
1.70992
1.72834
1.71638
1.68824
1.65848
1.63564
1.62185
1.61572
1.61484
1.61707
1.62095
1.62558
1.63052
1.63555
1.63998
1.64278
1.64564
1.64864
1.65194
1.65589
1.66119
1.66919
1.68252
1.70588
1.74614
1.80557
1.85031
1.76255
1.62345
1.66725
1.70859
1.72758
1.71625
1.68846
1.65871
1.63568
1.62166
1.61533
1.61431
1.61646
1.6203
1.62491
1.62984
1.63487
1.63935
1.64217
1.64504
1.64806
1.65138
1.65536
1.66069
1.66877
1.68221
1.70578
1.74629
1.80576
1.84982
1.76153
1.6226
1.66597
1.70727
1.72682
1.71611
1.68866
1.65893
1.63573
1.62148
1.61495
1.6138
1.61586
1.61965
1.62424
1.62917
1.63418
1.63873
1.64155
1.64444
1.64748
1.65082
1.65482
1.6602
1.66835
1.68192
1.70568
1.74644
1.80595
1.84931
1.76052
1.62178
1.66472
1.70597
1.72606
1.71596
1.68886
1.65916
1.63578
1.6213
1.61459
1.61329
1.61528
1.61901
1.62358
1.6285
1.63351
1.63811
1.64094
1.64385
1.6469
1.65025
1.65429
1.65971
1.66793
1.68162
1.70558
1.74659
1.80612
1.84881
1.75952
1.62096
1.66348
1.70469
1.72529
1.7158
1.68906
1.65938
1.63584
1.62114
1.61423
1.6128
1.61469
1.61838
1.62293
1.62783
1.63284
1.63748
1.64035
1.64326
1.64632
1.6497
1.65376
1.65923
1.66752
1.68133
1.7055
1.74674
1.80629
1.8483
1.75855
1.62016
1.66227
1.70342
1.72452
1.71562
1.68924
1.65961
1.6359
1.62099
1.61388
1.61231
1.61412
1.61776
1.62228
1.62717
1.63217
1.63687
1.63974
1.64267
1.64575
1.64915
1.65324
1.65874
1.6671
1.68105
1.70541
1.74688
1.80644
1.84778
1.75758
1.61938
1.66107
1.70215
1.72374
1.71544
1.68941
1.65983
1.63598
1.62085
1.61354
1.61183
1.61355
1.61714
1.62164
1.62651
1.63151
1.63626
1.63914
1.64209
1.64519
1.6486
1.65271
1.65826
1.66669
1.68076
1.70532
1.74703
1.8066
1.84725
1.75664
1.61861
1.65989
1.70091
1.72297
1.71524
1.68957
1.66005
1.63605
1.62071
1.61321
1.61136
1.61299
1.61653
1.621
1.62586
1.63085
1.63565
1.63854
1.64151
1.64462
1.64805
1.65219
1.65779
1.66629
1.68048
1.70524
1.74717
1.80673
1.84672
1.7557
1.61785
1.65873
1.69967
1.72218
1.71503
1.68972
1.66027
1.63613
1.62058
1.61289
1.6109
1.61244
1.61592
1.62037
1.62522
1.6302
1.63504
1.63795
1.64093
1.64405
1.64751
1.65168
1.65731
1.66589
1.68021
1.70516
1.74731
1.80687
1.84619
1.75478
1.6171
1.65759
1.69845
1.7214
1.71481
1.68987
1.66049
1.63622
1.62046
1.61258
1.61044
1.61189
1.61533
1.61974
1.62457
1.62955
1.63444
1.63736
1.64036
1.64349
1.64697
1.65116
1.65684
1.66549
1.67993
1.70508
1.74746
1.80699
1.84566
1.75387
1.61636
1.65646
1.69724
1.7206
1.71457
1.69001
1.6607
1.63631
1.62035
1.61228
1.60999
1.61136
1.61474
1.61912
1.62394
1.62891
1.63384
1.63678
1.63978
1.64293
1.64643
1.65065
1.65637
1.66509
1.67966
1.70501
1.7476
1.8071
1.84512
1.75297
1.61564
1.65535
1.69604
1.71981
1.71433
1.69014
1.66092
1.6364
1.62024
1.61198
1.60956
1.61083
1.61415
1.61851
1.62331
1.62827
1.63325
1.6362
1.63921
1.64238
1.64589
1.65014
1.65591
1.6647
1.6794
1.70494
1.74774
1.80721
1.84457
1.75208
1.61493
1.65426
1.69485
1.71893
1.71407
1.69025
1.66113
1.63649
1.62014
1.6117
1.60913
1.6103
1.61358
1.6179
1.62269
1.62764
1.63262
1.63561
1.63864
1.64182
1.64535
1.64963
1.65544
1.66431
1.67914
1.70487
1.74787
1.8073
1.84402
1.75121
1.61422
1.65318
1.69367
1.71805
1.71381
1.69036
1.66133
1.6366
1.62005
1.61142
1.60871
1.60979
1.613
1.6173
1.62207
1.62701
1.63199
1.63503
1.63808
1.64127
1.64482
1.64913
1.65498
1.66393
1.67888
1.7048
1.74801
1.8074
1.84346
1.75034
1.61353
1.65211
1.69251
1.71716
1.71353
1.69046
1.66154
1.63669
1.61996
1.61115
1.60829
1.60928
1.61243
1.6167
1.62146
1.62639
1.63137
1.63446
1.63751
1.64072
1.64429
1.64862
1.65452
1.66354
1.67862
1.70474
1.74814
1.80747
1.8429
1.74948
1.61285
1.65107
1.69136
1.71627
1.71325
1.69055
1.66174
1.6368
1.61988
1.61088
1.60789
1.60877
1.61188
1.6161
1.62084
1.62577
1.63074
1.63389
1.63695
1.64018
1.64377
1.64812
1.65407
1.66316
1.67836
1.70467
1.74827
1.80755
1.84234
1.74863
1.61218
1.65003
1.69022
1.71539
1.71295
1.69064
1.66194
1.6369
1.61981
1.61063
1.60748
1.60828
1.61132
1.61552
1.62024
1.62516
1.63012
1.63332
1.6364
1.63963
1.64324
1.64762
1.65361
1.66278
1.67811
1.70461
1.74841
1.80762
1.84178
1.74779
1.61151
1.64901
1.68909
1.71451
1.71265
1.69071
1.66213
1.63701
1.61974
1.61037
1.60709
1.60778
1.61077
1.61493
1.61964
1.62455
1.62951
1.63276
1.63584
1.63909
1.64272
1.64712
1.65316
1.6624
1.67786
1.70454
1.74853
1.80767
1.84121
1.74696
1.61086
1.648
1.68797
1.71363
1.71233
1.69078
1.66232
1.63712
1.61968
1.61013
1.6067
1.6073
1.61023
1.61436
1.61904
1.62394
1.62889
1.63219
1.63529
1.63855
1.6422
1.64663
1.65271
1.66203
1.67761
1.70449
1.74866
1.80772
1.84064
1.74613
1.61021
1.64701
1.68685
1.71275
1.71201
1.69083
1.6625
1.63723
1.61961
1.60989
1.60633
1.60682
1.60969
1.61379
1.61845
1.62334
1.62829
1.63163
1.63474
1.63802
1.64167
1.64614
1.65226
1.66166
1.67737
1.70443
1.74878
1.80777
1.84007
1.74531
1.60958
1.64602
1.68575
1.71187
1.71168
1.69088
1.66268
1.63735
1.61956
1.60966
1.60595
1.60635
1.60916
1.61322
1.61787
1.62275
1.62769
1.63108
1.63419
1.63748
1.64116
1.64565
1.65181
1.66129
1.67712
1.70437
1.7489
1.8078
1.83949
1.74451
1.60895
1.64505
1.68466
1.711
1.71135
1.69092
1.66286
1.63746
1.61951
1.60944
1.60558
1.60589
1.60863
1.61266
1.61729
1.62215
1.62709
1.63052
1.63365
1.63695
1.64065
1.64517
1.65137
1.66093
1.67689
1.70432
1.74902
1.80784
1.83891
1.7437
1.60833
1.6441
1.68358
1.71013
1.711
1.69095
1.66303
1.63757
1.61947
1.60922
1.60523
1.60543
1.60811
1.6121
1.61671
1.62157
1.6265
1.62997
1.63311
1.63643
1.64014
1.64468
1.65093
1.66056
1.67665
1.70427
1.74914
1.80785
1.83833
1.74291
1.60772
1.64315
1.68252
1.70926
1.71065
1.69098
1.6632
1.63769
1.61943
1.60901
1.60487
1.60497
1.60759
1.61155
1.61614
1.62098
1.62591
1.62942
1.63257
1.6359
1.63963
1.6442
1.6505
1.6602
1.67642
1.70421
1.74925
1.80787
1.83774
1.74212
1.60711
1.64221
1.68145
1.70839
1.71029
1.69099
1.66337
1.6378
1.61939
1.60881
1.60452
1.60452
1.60708
1.611
1.61557
1.62041
1.62532
1.62887
1.63203
1.63538