/*--------------------------------*- C++ -*----------------------------------*\
  =========                 |
  \\      /  F ield         | OpenFOAM: The Open Source CFD Toolbox
   \\    /   O peration     | Website:  https://openfoam.org
    \\  /    A nd           | Version:  8
     \\/     M anipulation  |
\*---------------------------------------------------------------------------*/
FoamFile
{
    version     2.0;
    format      ascii;
    class       volScalarField;
    location    "1";
    object      Cacr;
}
// * * * * * * * * * * * * * * * * * * * * * * * * * * * * * * * * * * * * * //

dimensions      [0 0 0 0 0 0 0];

internalField   nonuniform List<scalar> 
6300
(
1.76774
1.98217
1.66711
1.49133
1.37936
1.30116
1.24417
1.20147
1.16868
1.14293
1.1223
1.1055
1.09162
1.08005
1.07032
1.06208
1.05507
1.0491
1.04401
1.03967
1.03598
1.03287
1.03026
1.02812
1.0264
1.02509
1.02407
1.02287
1.01868
1.00183
1.89942
1.73696
1.58581
1.47484
1.38853
1.32108
1.26872
1.22786
1.19546
1.16928
1.14776
1.12981
1.11466
1.10175
1.09066
1.08107
1.07272
1.06542
1.05902
1.05339
1.04841
1.04401
1.0401
1.03661
1.03347
1.03059
1.02783
1.02477
1.01916
0.9998
1.45483
1.53548
1.50577
1.45979
1.40232
1.34408
1.29262
1.25021
1.21623
1.189
1.16684
1.14843
1.13286
1.11947
1.10782
1.09756
1.08846
1.08032
1.073
1.06637
1.06034
1.05485
1.04983
1.04523
1.04101
1.03711
1.03341
1.02934
1.02152
1.00002
1.2773
1.39492
1.42057
1.41489
1.38425
1.34082
1.29577
1.2557
1.22257
1.19578
1.17395
1.1558
1.1404
1.1271
1.11543
1.10507
1.09577
1.08732
1.0794
1.07189
1.06501
1.05871
1.05294
1.04761
1.04265
1.03799
1.03357
1.02894
1.02086
0.99875
1.18061
1.2998
1.34776
1.36393
1.35139
1.32049
1.28281
1.24667
1.21567
1.19021
1.16936
1.15201
1.13729
1.12457
1.11341
1.10349
1.09456
1.08646
1.07857
1.07103
1.06418
1.05793
1.05221
1.04692
1.042
1.03738
1.03299
1.02835
1.02025
0.997896
1.11638
1.23202
1.29086
1.32018
1.32058
1.30004
1.26931
1.2373
1.2087
1.18473
1.16494
1.14843
1.13439
1.12224
1.11156
1.10205
1.09348
1.08568
1.07745
1.06996
1.06317
1.05699
1.05132
1.04609
1.04122
1.03665
1.0323
1.02771
1.01967
0.997132
1.06902
1.18069
1.24549
1.2831
1.29274
1.2805
1.25595
1.22796
1.20183
1.17945
1.16077
1.1451
1.13174
1.12016
1.10995
1.10083
1.09259
1.08431
1.07613
1.06872
1.06201
1.05589
1.05029
1.04513
1.04034
1.03583
1.03157
1.02705
1.01911
0.996419
1.03162
1.1396
1.20798
1.25113
1.26756
1.26197
1.24283
1.21862
1.19497
1.17421
1.15667
1.14186
1.1292
1.11818
1.10845
1.09972
1.09181
1.08282
1.07472
1.0674
1.06076
1.05472
1.0492
1.04412
1.03941
1.035
1.03083
1.02641
1.01859
0.995743
1.00088
1.10546
1.17611
1.22318
1.24474
1.24457
1.23011
1.2094
1.18815
1.16903
1.15265
1.13872
1.12676
1.11631
1.10704
1.0987
1.09013
1.08124
1.07323
1.066
1.05945
1.05349
1.04806
1.04307
1.03845
1.03414
1.03008
1.02579
1.01808
0.995095
0.974976
1.07637
1.14848
1.19841
1.22399
1.22827
1.21788
1.20038
1.18143
1.16393
1.14872
1.13568
1.12441
1.11453
1.10573
1.09778
1.08838
1.07958
1.07166
1.06452
1.05806
1.0522
1.04686
1.04197
1.03746
1.03327
1.02934
1.02518
1.01759
0.994466
0.952739
1.05113
1.12413
1.17622
1.20501
1.21302
1.20619
1.19162
1.17486
1.15893
1.14488
1.13272
1.12216
1.11284
1.10451
1.09624
1.08655
1.07785
1.07003
1.06298
1.05662
1.05086
1.04562
1.04084
1.03645
1.03239
1.0286
1.02458
1.01711
0.993853
0.933388
1.02893
1.1024
1.15615
1.18756
1.19872
1.19503
1.18313
1.16844
1.15405
1.14114
1.12986
1.12
1.11125
1.10338
1.09425
1.08465
1.07605
1.06833
1.06138
1.05511
1.04946
1.04434
1.03968
1.03542
1.0315
1.02786
1.02398
1.01663
0.99325
0.91636
1.0092
1.08283
1.13784
1.17141
1.18529
1.18438
1.17493
1.16219
1.14928
1.13749
1.12709
1.11792
1.10974
1.10233
1.09219
1.08269
1.07419
1.06656
1.05971
1.05356
1.04801
1.04301
1.03848
1.03436
1.03059
1.02711
1.02339
1.01615
0.992656
0.901233
0.991494
1.06506
1.12102
1.15641
1.17265
1.17422
1.16702
1.15611
1.14463
1.13394
1.1244
1.11592
1.1083
1.1006
1.09008
1.08067
1.07226
1.06474
1.05799
1.05195
1.04652
1.04165
1.03725
1.03328
1.02967
1.02635
1.02279
1.01567
0.99207
0.887685
0.975498
1.04881
1.10549
1.14241
1.16071
1.16452
1.15939
1.15021
1.1401
1.13049
1.1218
1.114
1.10694
1.09835
1.08791
1.0786
1.07028
1.06286
1.05622
1.05029
1.04499
1.04024
1.03599
1.03217
1.02873
1.02559
1.02219
1.01518
0.99149
0.875463
0.960948
1.03386
1.09107
1.12929
1.14942
1.15524
1.15202
1.14448
1.13569
1.12713
1.11928
1.11216
1.10566
1.09605
1.08569
1.07647
1.06825
1.06092
1.0544
1.04858
1.04341
1.0388
1.0347
1.03104
1.02777
1.02481
1.02157
1.01468
0.990915
0.864366
0.947636
1.02005
1.07762
1.11695
1.1387
1.14635
1.14491
1.13892
1.1314
1.12386
1.11684
1.11039
1.10444
1.0937
1.08342
1.07428
1.06616
1.05894
1.05252
1.04683
1.04179
1.03733
1.03338
1.02989
1.02679
1.02401
1.02095
1.01417
0.990344
0.854234
0.935393
1.00722
1.06503
1.10531
1.1285
1.13784
1.13805
1.13353
1.12723
1.12069
1.11447
1.10869
1.10283
1.09131
1.08111
1.07205
1.06402
1.0569
1.0506
1.04503
1.04012
1.03581
1.03202
1.0287
1.02579
1.0232
1.02031
1.01365
0.989778
0.844934
0.924081
0.995255
1.0532
1.09429
1.11878
1.12966
1.13142
1.12829
1.12317
1.1176
1.11219
1.10707
1.10034
1.08888
1.07874
1.06977
1.06183
1.05481
1.04862
1.04318
1.03841
1.03425
1.03063
1.02749
1.02477
1.02237
1.01966
1.01311
0.989215
0.836357
0.913584
0.98406
1.04204
1.08383
1.1095
1.1218
1.12501
1.1232
1.11922
1.1146
1.10997
1.10551
1.09782
1.08641
1.07633
1.06743
1.05958
1.05267
1.0466
1.04129
1.03666
1.03265
1.0292
1.02624
1.02371
1.02151
1.01898
1.01256
0.988657
0.828414
0.903807
0.973549
1.0315
1.07388
1.10061
1.11423
1.11881
1.11827
1.11538
1.11169
1.10784
1.10402
1.09526
1.08389
1.07388
1.06505
1.05729
1.05048
1.04452
1.03934
1.03486
1.03101
1.02773
1.02496
1.02263
1.02063
1.01829
1.012
0.988101
0.821029
0.894668
0.96365
1.02151
1.0644
1.0921
1.10694
1.1128
1.11347
1.11165
1.10886
1.10577
1.1026
1.09267
1.08134
1.07138
1.06262
1.05495
1.04824
1.0424
1.03735
1.03301
1.02933
1.02622
1.02364
1.02152
1.01973
1.01757
1.01142
0.987549
0.814138
0.886097
0.954301
1.01201
1.05534
1.08392
1.0999
1.10698
1.10881
1.10802
1.10611
1.10378
1.10124
1.09003
1.07874
1.06883
1.06014
1.05255
1.04594
1.04022
1.0353
1.03112
1.0276
1.02467
1.02229
1.02037
1.01879
1.01684
1.01083
0.987
0.807688
0.878036
0.945448
1.00297
1.04667
1.07605
1.0931
1.10134
1.10427
1.10448
1.10345
1.10186
1.09996
1.08736
1.07609
1.06623
1.05761
1.0501
1.04359
1.03799
1.03321
1.02917
1.02582
1.02308
1.02089
1.01919
1.01783
1.01607
1.01022
0.986453
0.80163
0.870434
0.937047
0.99434
1.03835
1.06847
1.08653
1.09586
1.09987
1.10105
1.10087
1.10001
1.09753
1.08465
1.0734
1.06358
1.05503
1.0476
1.04119
1.0357
1.03106
1.02717
1.02399
1.02144
1.01946
1.01797
1.01683
1.01529
1.00959
0.985911
0.795927
0.863245
0.929056
0.98609
1.03037
1.06116
1.08016
1.09055
1.09558
1.09771
1.09836
1.09824
1.09478
1.0819
1.07067
1.06089
1.05239
1.04504
1.03873
1.03336
1.02885
1.02512
1.02211
1.01975
1.01798
1.01671
1.0158
1.01447
1.00894
0.985371
0.790543
0.856433
0.921441
0.978191
1.02269
1.05411
1.074
1.08538
1.09141
1.09446
1.09594
1.09653
1.092
1.0791
1.06789
1.05814
1.0497
1.04243
1.03622
1.03096
1.02659
1.02301
1.02018
1.01801
1.01645
1.01542
1.01474
1.01363
1.00828
0.984835
0.785449
0.849964
0.914171
0.970613
1.01529
1.04729
1.06802
1.08036
1.08736
1.09131
1.0936
1.09491
1.08917
1.07626
1.06505
1.05534
1.04695
1.03976
1.03364
1.02851
1.02427
1.02085
1.01819
1.01622
1.01488
1.01407
1.01363
1.01276
1.0076
0.984302
0.780618
0.843807
0.907218
0.963336
1.00816
1.04069
1.06222
1.07549
1.08342
1.08825
1.09134
1.09336
1.08631
1.07337
1.06217
1.05248
1.04415
1.03703
1.03101
1.02599
1.02188
1.01863
1.01615
1.01438
1.01326
1.01269
1.01249
1.01186
1.0069
0.983773
0.776027
0.837939
0.900559
0.956337
1.00127
1.03431
1.05659
1.07075
1.07958
1.08528
1.08916
1.09188
1.0834
1.07043
1.05923
1.04957
1.04128
1.03424
1.02831
1.0234
1.01944
1.01634
1.01404
1.01248
1.01158
1.01126
1.01131
1.01093
1.00618
0.983247
0.771656
0.832335
0.894172
0.949598
0.994625
1.02812
1.05113
1.06614
1.07586
1.08241
1.08706
1.09049
1.08044
1.06744
1.05623
1.04659
1.03836
1.03138
1.02554
1.02076
1.01693
1.01399
1.01188
1.01052
1.00985
1.00978
1.01009
1.00996
1.00544
0.982726
0.767487
0.826975
0.88804
0.943103
0.988196
1.02213
1.04583
1.06166
1.07224
1.07962
1.08505
1.08918
1.07743
1.06439
1.05317
1.04356
1.03536
1.02845
1.02271
1.01804
1.01435
1.01158
1.00965
1.00851
1.00807
1.00825
1.00883
1.00896
1.00468
0.982208
0.763505
0.821842
0.882144
0.936838
0.981977
1.01631
1.04067
1.05731
1.06874
1.07694
1.08313
1.08796
1.07436
1.06128
1.05005
1.04045
1.0323
1.02546
1.01981
1.01526
1.01171
1.0091
1.00736
1.00643
1.00623
1.00666
1.00752
1.00793
1.00391
0.981696
0.759693
0.81692
0.87647
0.93079
0.975959
1.01068
1.03567
1.05308
1.06534
1.07435
1.08131
1.08653
1.07123
1.05811
1.04687
1.03728
1.02917
1.0224
1.01684
1.0124
1.009
1.00655
1.00501
1.00429
1.00433
1.00503
1.00617
1.00686
1.00311
0.981188
0.756041
0.812195
0.871004
0.924948
0.970131
1.00521
1.03082
1.04899
1.06205
1.07186
1.07958
1.08342
1.06803
1.05486
1.04361
1.03404
1.02597
1.01926
1.0138
1.00948
1.00622
1.00394
1.00258
1.00209
1.00238
1.00335
1.00477
1.00576
1.0023
0.980686
0.752536
0.807653
0.865737
0.919302
0.964489
0.999908
1.02611
1.04502
1.05888
1.06948
1.07795
1.08023
1.06476
1.05154
1.04027
1.03071
1.02269
1.01605
1.01068
1.00648
1.00336
1.00125
1.0001
0.999821
1.00036
1.00161
1.00333
1.00462
1.00146
0.98019
0.749169
0.803284
0.860656
0.913845
0.959025
0.994772
1.02155
1.04119
1.05583
1.06722
1.07644
1.07697
1.06141
1.04815
1.03686
1.02731
1.01933
1.01276
1.00749
1.00341
1.00043
0.998499
0.997539
0.997491
0.998285
0.999812
1.00184
1.00345
1.00061
0.979701
0.745929
0.799077
0.855754
0.90857
0.953738
0.989799
1.01714
1.03749
1.05291
1.06508
1.07506
1.07362
1.05798
1.04466
1.03335
1.02383
1.01589
1.00939
1.00422
1.00026
0.997434
0.995675
0.994916
0.995098
0.996151
0.997965
1.0003
1.00224
0.999742
0.979219
0.742809
0.795025
0.851024
0.903472
0.948624
0.984991
1.01288
1.03393
1.05012
1.06307
1.0738
1.07017
1.05444
1.04108
1.02976
1.02025
1.01236
1.00594
1.00087
0.997034
0.994363
0.992782
0.992228
0.992643
0.993958
0.996064
0.998719
1.001
0.998856
0.978745
0.739801
0.791118
0.846459
0.898548
0.943683
0.980351
1.00879
1.03053
1.04749
1.06122
1.0727
1.06661
1.0508
1.03739
1.02607
1.01658
1.00875
1.00241
0.997438
0.993738
0.991223
0.989822
0.989476
0.990128
0.991709
0.994113
0.997093
0.999723
0.997954
0.978281
0.736898
0.787351
0.842054
0.893795
0.938918
0.975884
1.00486
1.0273
1.04502
1.05952
1.07176
1.06292
1.04704
1.03359
1.02227
1.01282
1.00504
0.998789
0.993932
0.990369
0.988015
0.9868
0.986665
0.987556
0.989407
0.992112
0.995424
0.998416
0.997039
0.977826
0.734094
0.783718
0.837808
0.889216
0.934333
0.9716
1.00112
1.02424
1.04273
1.05802
1.07101
1.0591
1.04314
1.02967
1.01836
1.00895
1.00125
0.995089
0.990353
0.986934
0.984745
0.983719
0.9838
0.984933
0.987057
0.990066
0.993717
0.99708
0.996111
0.977383
0.731383
0.780216
0.833719
0.884812
0.929936
0.967511
0.99757
1.02139
1.04065
1.05672
1.07048
1.05511
1.0391
1.02562
1.01433
1.00498
0.997358
0.99131
0.986704
0.983436
0.98142
0.980589
0.980887
0.982265
0.984664
0.987981
0.991974
0.995717
0.995172
0.976954
0.72876
0.776841
0.829787
0.88059
0.925738
0.963634
0.994249
1.01877
1.0388
1.05567
1.07002
1.05094
1.0349
1.02143
1.01018
1.0009
0.99338
0.987454
0.982992
0.979885
0.978049
0.977417
0.977937
0.979562
0.982235
0.985862
0.990202
0.994333
0.994226
0.976538
0.726222
0.773593
0.826019
0.876561
0.921758
0.959996
0.991181
1.01642
1.03724
1.0549
1.06571
1.04657
1.03052
1.01708
1.0059
0.996718
0.989318
0.983533
0.979227
0.976293
0.974646
0.974219
0.974963
0.976834
0.979784
0.983719
0.988407
0.992931
0.993276
0.976139
0.723765
0.770472
0.82242
0.87274
0.918019
0.956628
0.988407
1.01438
1.036
1.05446
1.06113
1.04197
1.02595
1.01257
1.00149
0.992434
0.98518
0.979556
0.975425
0.972677
0.971228
0.971012
0.971982
0.9741
0.977323
0.981565
0.986598
0.991518
0.992325
0.975759
0.721386
0.767482
0.819004
0.86915
0.914557
0.953575
0.985982
1.01272
1.03515
1.05442
1.05625
1.03711
1.02116
1.0079
0.996956
0.988059
0.98098
0.975544
0.971608
0.969061
0.967819
0.967819
0.969016
0.971379
0.97487
0.979412
0.984788
0.990102
0.991378
0.975399
0.719083
0.76463
0.815789
0.865825
0.911418
0.950899
0.983977
1.0115
1.03476
1.05485
1.05103
1.03197
1.01615
1.00305
0.992301
0.983607
0.976742
0.971523
0.967804
0.965475
0.964451
0.964671
0.966096
0.968699
0.97245
0.977283
0.98299
0.988693
0.99044
0.975061
0.716857
0.76193
0.812808
0.862815
0.908673
0.948687
0.982489
1.01084
1.03495
1.05585
1.04541
1.02653
1.01091
0.998045
0.987544
0.979107
0.972497
0.967529
0.964054
0.96196
0.961164
0.961609
0.963258
0.966093
0.970093
0.975201
0.981224
0.987304
0.989517
0.974748
0.714708
0.759401
0.810103
0.860189
0.906415
0.947051
0.981645
1.01086
1.03583
1.05752
1.03937
1.02075
1.00544
0.992898
0.98272
0.9746
0.968295
0.963616
0.960412
0.958571
0.958014
0.958684
0.960553
0.963609
0.96784
0.973203
0.979518
0.985951
0.988618
0.974462
0.712646
0.757086
0.807755
0.858067
0.904798
0.94617
0.981636
1.01176
1.03757
1.05515
1.03285
1.01465
0.999761
0.987641
0.977874
0.970142
0.964199
0.959849
0.956946
0.955378
0.955067
0.955964
0.958045
0.961305
0.965744
0.971331
0.977905
0.984658
0.987753
0.974205
0.710671
0.755017
0.805844
0.856577
0.903993
0.946243
0.982668
1.01372
1.04035
1.04759
1.02586
1.00824
0.993935
0.982362
0.973105
0.965838
0.960314
0.956338
0.953764
0.952486
0.952428
0.953548
0.955827
0.95927
0.963886
0.969659
0.976444
0.983464
0.986942
0.973983
0.708846
0.753373
0.804646
0.856081
0.904421
0.94772
0.985185
1.01715
1.0445
1.03922
1.01834
1.00154
0.987985
0.977108
0.968476
0.961765
0.956726
0.953172
0.95096
0.949989
0.950193
0.951531
0.953995
0.957596
0.962354
0.968262
0.975196
0.982414
0.986206
0.973799
0.707118
0.752106
0.804204
0.856702
0.90626
0.950786
0.989333
1.02213
1.05
1.03033
1.0106
0.994851
0.982251
0.972214
0.964314
0.958235
0.953736
0.950638
0.948809
0.948154
0.948614
0.950158
0.952781
0.956503
0.961352
0.967331
0.97433
0.981637
0.985626
0.973679
0.705887
0.752143
0.80576
0.859902
0.911064
0.956986
0.996562
1.02994
1.04343
1.02029
1.00217
0.987828
0.976445
0.96745
0.960436
0.955104
0.951232
0.948656
0.947256
0.94695
0.947686
0.949442
0.95222
0.956043
0.960945
0.966932
0.973903
0.981176
0.985214
0.973628
0.704584
0.752452
0.808305
0.864648
0.917704
0.964974
1.00522
1.03858
1.03237
1.01146
0.995236
0.982491
0.972438
0.964546
0.958441
0.953853
0.950587
0.948499
0.947486
0.947478
0.948434
0.950338
0.953196
0.957037
0.961892
0.967767
0.974554
0.981574
0.985361
0.973784
0.705993
0.758697
0.818701
0.878435
0.933749
0.982083
1.02219
1.03986
1.0168
0.999241
0.985726
0.97518
0.966919
0.960491
0.955589
0.951993
0.949544
0.948128
0.947664
0.948099
0.949403
0.951567
0.954602
0.958534
0.963389
0.96916
0.975719
0.982374
0.985724
0.97409
0.705222
0.761644
0.826504
0.889176
0.945226
0.992212
1.02884
1.03219
1.01361
0.999099
0.987808
0.978902
0.97185
0.966305
0.962036
0.958878
0.956711
0.955449
0.955031
0.955418
0.95659
0.958543
0.961289
0.964853
0.969251
0.974457
0.980292
0.985971
0.988056
0.975076
0.723886
0.797176
0.869633
0.935052
0.988671
1.02471
1.01853
1.00267
0.990268
0.980729
0.973255
0.967346
0.962702
0.959139
0.956528
0.954779
0.953826
0.953618
0.954121
0.955314
0.957189
0.959746
0.962996
0.966951
0.971606
0.976899
0.982609
0.98791
0.98935
0.976269
0.726851
0.810619
0.883762
0.937477
0.976177
1.00329
1.01945
1.02419
1.02061
1.01421
1.00755
1.00139
0.995979
0.991372
0.987563
0.984528
0.982231
0.980638
0.97972
0.979452
0.979817
0.980795
0.982371
0.984513
0.987153
0.990124
0.993039
0.994887
0.992377
0.975968
0.890044
0.896764
0.920546
0.955637
0.987994
1.0094
1.01559
1.01113
1.00383
0.996682
0.990404
0.985118
0.980813
0.977438
0.974937
0.973256
0.972346
0.972168
0.97269
0.97389
0.975753
0.97827
0.981433
0.985226
0.989595
0.994378
0.999115
1.00244
1.00018
0.982625
0.90758
0.89222
0.902754
0.925224
0.950876
0.974148
0.993443
1.00883
1.02063
1.02841
1.03046
1.02733
1.02238
1.01745
1.01309
1.00945
1.00658
1.00446
1.00307
1.00238
1.00239
1.00305
1.00436
1.00626
1.00864
1.01125
1.01341
1.01331
1.00647
0.983906
0.948549
0.946386
0.951463
0.965482
0.983346
1.00088
1.01616
1.02859
1.03677
1.03501
1.02891
1.02302
1.01788
1.01355
1.01002
1.00727
1.00527
1.00398
1.00337
1.00344
1.00414
1.00546
1.00737
1.00979
1.01258
1.0154
1.01745
1.01677
1.00875
0.985152
0.956136
0.955655
0.961175
0.972129
0.985643
0.999142
1.01134
1.02186
1.03081
1.03832
1.03991
1.03463
1.02981
1.02567
1.02223
1.01947
1.01737
1.01592
1.0151
1.01488
1.01525
1.01617
1.01761
1.01947
1.02158
1.02355
1.02446
1.02221
1.0121
0.986326
0.963753
0.968892
0.976488
0.986632
0.997697
1.00832
1.01784
1.0261
1.03321
1.03935
1.03963
1.03523
1.03134
1.02802
1.02526
1.02307
1.02144
1.02037
1.01985
1.01985
1.02037
1.02137
1.0228
1.02455
1.02642
1.02798
1.02825
1.02503
1.01364
0.98674
0.966999
0.974825
0.984294
0.994623
1.00459
1.01348
1.02115
1.0277
1.03333
1.03824
1.04071
1.0372
1.03405
1.03132
1.02906
1.02726
1.02595
1.02511
1.02474
1.02483
1.02537
1.02631
1.0276
1.02913
1.03066
1.03172
1.03132
1.0272
1.01469
0.986947
0.969197
0.979128
0.990217
1.00114
1.01072
1.01861
1.025
1.03024
1.03466
1.0385
1.04051
1.03779
1.03532
1.03317
1.03138
1.02997
1.02896
1.02835
1.02815
1.02834
1.02891
1.02982
1.031
1.03234
1.03358
1.03424
1.03329
1.02829
1.0148
0.986906
0.970498
0.981702
0.993976
1.00553
1.0151
1.02247
1.02803
1.03233
1.03581
1.0388
1.04029
1.03825
1.03635
1.03468
1.03328
1.03219
1.03143
1.03101
1.03093
1.03119
1.03176
1.03261
1.03367
1.03481
1.03578
1.03607
1.03433
1.02744
1.01434
0.986779
0.97137
0.983418
0.996553
1.00869
1.01843
1.02556
1.03061
1.03423
1.03701
1.0393
1.0399
1.03842
1.03701
1.03575
1.03469
1.03388
1.03333
1.03307
1.0331
1.0334
1.03397
1.03476
1.0357
1.03666
1.03738
1.03736
1.03344
1.02687
1.014
0.986602
0.971956
0.984532
0.998264
1.01088
1.02085
1.02793
1.03267
1.03584
1.03808
1.03983
1.0395
1.03847
1.03747
1.03655
1.03579
1.03521
1.03485
1.03472
1.03483
1.03516
1.03571
1.03644
1.03727
1.03807
1.03857
1.03652
1.03281
1.02648
1.01371
0.986413
0.972368
0.985273
0.999412
1.01242
1.02263
1.02974
1.03432
1.03718
1.03903
1.0396
1.03908
1.03844
1.03777
1.03715
1.03663
1.03626
1.03605
1.03603
1.0362
1.03657
1.0371
1.03777
1.03849
1.03915
1.03817
1.03585
1.03235
1.02617
1.01347
0.986219
0.972664
0.985761
1.00017
1.01347
1.02391
1.03111
1.03562
1.03817
1.0388
1.03889
1.03869
1.03835
1.03796
1.03759
1.03728
1.03708
1.03701
1.03708
1.03731
1.03769
1.03821
1.03882
1.03946
1.03905
1.03749
1.03534
1.032
1.02593
1.01323
0.986028
0.972881
0.986078
1.00065
1.01417
1.02482
1.03213
1.03535
1.03709
1.03794
1.03828
1.03834
1.03824
1.03808
1.03791
1.03778
1.03772
1.03776
1.03792
1.0382
1.03859
1.03909
1.03966
1.0395
1.03839
1.03696
1.03495
1.03172
1.02572
1.013
0.98584
0.973044
0.986277
1.00094
1.01463
1.02545
1.03107
1.03436
1.03622
1.03724
1.03777
1.03802
1.03812
1.03814
1.03814
1.03816
1.03823
1.03836
1.03859
1.03891
1.03932
1.0398
1.03973
1.03889
1.03787
1.03654
1.03463
1.03148
1.02553
1.01278
0.985659
0.973167
0.986391
1.0011
1.0149
1.02474
1.03022
1.03356
1.03552
1.03667
1.03734
1.03774
1.038
1.03817
1.03831
1.03845
1.03862
1.03884
1.03912
1.03948
1.0399
1.03985
1.03919
1.03841
1.03745
1.0362
1.03437
1.03129
1.02536
1.01256
0.985482
0.973261
0.986446
1.00115
1.01503
1.02403
1.02953
1.03293
1.03496
1.0362
1.03698
1.0375
1.03788
1.03818
1.03843
1.03868
1.03893
1.03922
1.03955
1.03993
1.03994
1.03938
1.03875
1.03801
1.03712
1.03593
1.03415
1.03112
1.0252
1.01234
0.985312
0.973333
0.986456
1.00113
1.01502
1.02345
1.02898
1.03242
1.03451
1.03582
1.03668
1.0373
1.03778
1.03817
1.03852
1.03884
1.03917
1.03952
1.03989
1.04004
1.03955
1.03901
1.0384
1.0377
1.03685
1.03571
1.03397
1.03097
1.02504
1.01212
0.985146
0.973389
0.986435
1.00106
1.01454
1.02297
1.02853
1.03201
1.03415
1.03552
1.03644
1.03713
1.03769
1.03816
1.03858
1.03897
1.03936
1.03975
1.04016
1.03974
1.03924
1.03871
1.03812
1.03745
1.03663
1.03553
1.03383
1.03084
1.0249
1.01191
0.984986
0.973433
0.986391
1.00095
1.0141
1.02256
1.02816
1.03168
1.03387
1.03527
1.03625
1.03699
1.03761
1.03814
1.03862
1.03907
1.0395
1.03993
1.03998
1.0395
1.039
1.03847
1.0379
1.03725
1.03646
1.03538
1.0337
1.03073
1.02476
1.0117
0.984831
0.973467
0.986329
1.00081
1.01372
1.02221
1.02786
1.03142
1.03364
1.03508
1.03609
1.03688
1.03754
1.03812
1.03865
1.03914
1.03961
1.04008
1.03981
1.03932
1.03881
1.03829
1.03772
1.03709
1.03632
1.03526
1.0336
1.03063
1.02463
1.01149
0.98468
0.973494
0.986254
1.00066
1.01338
1.0219
1.02761
1.0312
1.03345
1.03492
1.03597
1.03679
1.03748
1.0381
1.03867
1.03919
1.0397
1.04018
1.03968
1.03918
1.03867
1.03814
1.03758
1.03696
1.0362
1.03516
1.03351
1.03054
1.02451
1.01129
0.984534
0.973515
0.986171
1.00048
1.01307
1.02163
1.02739
1.03103
1.03331
1.0348
1.03587
1.03672
1.03744
1.03808
1.03868
1.03923
1.03976
1.0401
1.03959
1.03907
1.03856
1.03803
1.03748
1.03686
1.03612
1.03508
1.03344
1.03046
1.02439
1.01109
0.984392
0.973532
0.986082
1.0003
1.01279
1.0214
1.0272
1.03089
1.03319
1.03471
1.0358
1.03666
1.0374
1.03807
1.03869
1.03926
1.03981
1.04005
1.03952
1.039
1.03847
1.03795
1.0374
1.03679
1.03605
1.03502
1.03338
1.03039
1.02427
1.0109
0.984254
0.973545
0.985988
1.00011
1.01253
1.02118
1.02704
1.03077
1.03311
1.03464
1.03574
1.03662
1.03738
1.03806
1.03869
1.03929
1.03985
1.04001
1.03947
1.03894
1.03841
1.03789
1.03734
1.03673
1.036
1.03497
1.03333
1.03033
1.02416
1.01071
0.98412
0.973556
0.985892
0.99991
1.01229
1.02098
1.0269
1.03067
1.03304
1.03459
1.0357
1.03659
1.03736
1.03805
1.0387
1.0393
1.03988
1.03999
1.03944
1.0389
1.03837
1.03784
1.03729
1.03669
1.03596
1.03494
1.03329
1.03027
1.02405
1.01052
0.98399
0.973565
0.985795
0.999712
1.01206
1.0208
1.02678
1.03059
1.03298
1.03455
1.03568
1.03657
1.03735
1.03805
1.0387
1.03931
1.0399
1.03998
1.03942
1.03888
1.03834
1.03781
1.03727
1.03667
1.03593
1.03491
1.03326
1.03021
1.02395
1.01034
0.983863
0.973572
0.985697
0.999513
1.01184
1.02063
1.02666
1.03052
1.03294
1.03452
1.03566
1.03656
1.03734
1.03805
1.0387
1.03932
1.03991
1.03998
1.03941
1.03887
1.03833
1.0378
1.03725
1.03665
1.03592
1.03489
1.03323
1.03017
1.02385
1.01016
0.98374
0.973578
0.985599
0.999315
1.01164
1.02046
1.02655
1.03046
1.03291
1.03451
1.03565
1.03655
1.03734
1.03805
1.03871
1.03933
1.03992
1.03998
1.03941
1.03886
1.03832
1.03779
1.03724
1.03664
1.03591
1.03488
1.03321
1.03012
1.02375
1.00999
0.983621
0.973583
0.985502
0.999119
1.01144
1.02031
1.02645
1.0304
1.03288
1.0345
1.03565
1.03656
1.03734
1.03805
1.03871
1.03934
1.03993
1.03999
1.03942
1.03887
1.03832
1.03779
1.03724
1.03664
1.03591
1.03487
1.03319
1.03008
1.02365
1.00981
0.983505
0.973587
0.985405
0.998924
1.01125
1.02016
1.02636
1.03035
1.03287
1.0345
1.03565
1.03656
1.03734
1.03805
1.03872
1.03934
1.03993
1.04001
1.03943
1.03888
1.03833
1.0378
1.03725
1.03665
1.03591
1.03487
1.03318
1.03004
1.02355
1.00964
0.983391
0.973591
0.985311
0.998732
1.01106
1.02001
1.02627
1.03031
1.03285
1.0345
1.03566
1.03657
1.03735
1.03806
1.03872
1.03935
1.03994
1.04002
1.03945
1.03889
1.03835
1.03781
1.03726
1.03666
1.03592
1.03487
1.03317
1.03
1.02345
1.00947
0.983281
0.973595
0.985218
0.998543
1.01088
1.01987
1.02618
1.03027
1.03284
1.03451
1.03567
1.03659
1.03736
1.03807
1.03873
1.03935
1.03994
1.04004
1.03947
1.03891
1.03836
1.03782
1.03727
1.03667
1.03593
1.03488
1.03316
1.02996
1.02336
1.00931
0.983174
0.973598
0.985126
0.998358
1.01071
1.01973
1.02609
1.03023
1.03283
1.03452
1.03569
1.0366
1.03738
1.03808
1.03873
1.03935
1.03994
1.04007
1.03949
1.03893
1.03838
1.03784
1.03729
1.03669
1.03594
1.03488
1.03315
1.02993
1.02326
1.00914
0.98307
0.973602
0.985037
0.998175
1.01053
1.01959
1.02601
1.03019
1.03283
1.03453
1.03571
1.03662
1.03739
1.03809
1.03874
1.03936
1.03994
1.04009
1.03951
1.03895
1.0384
1.03787
1.03731
1.0367
1.03596
1.03489
1.03315
1.02989
1.02317
1.00898
0.982968
0.973605
0.984949
0.997997
1.01036
1.01946
1.02592
1.03015
1.03282
1.03454
1.03573
1.03664
1.03741
1.0381
1.03875
1.03936
1.03994
1.04011
1.03953
1.03897
1.03843
1.03789
1.03733
1.03672
1.03597
1.0349
1.03314
1.02985
1.02308
1.00882
0.982869
0.973608
0.984864
0.997821
1.0102
1.01932
1.02584
1.03011
1.03282
1.03455
1.03575
1.03666
1.03742
1.03811
1.03876
1.03936
1.03994
1.04013
1.03956
1.039
1.03845
1.03791
1.03736
1.03675
1.03599
1.03491
1.03314
1.02982
1.02298
1.00866
0.982772
0.973612
0.98478
0.99765
1.01004
1.01919
1.02575
1.03008
1.03281
1.03456
1.03577
1.03668
1.03744
1.03813
1.03877
1.03937
1.03994
1.04016
1.03958
1.03902
1.03848
1.03794
1.03738
1.03677
1.03601
1.03492
1.03313
1.02978
1.02289
1.00851
0.982678
0.973615
0.984699
0.997482
1.00987
1.01906
1.02567
1.03004
1.03281
1.03458
1.03579
1.0367
1.03746
1.03814
1.03877
1.03937
1.03994
1.04018
1.0396
1.03905
1.0385
1.03796
1.03741
1.03679
1.03603
1.03494
1.03313
1.02975
1.0228
1.00835
0.982586
0.973619
0.984619
0.997317
1.00972
1.01893
1.02558
1.03
1.0328
1.03459
1.03581
1.03672
1.03748
1.03816
1.03878
1.03937
1.03994
1.0402
1.03963
1.03907
1.03853
1.03799
1.03743
1.03682
1.03605
1.03495
1.03313
1.02971
1.0227
1.0082
0.982497
0.973623
0.984541
0.997156
1.00956
1.01879
1.0255
1.02996
1.03279
1.0346
1.03583
1.03674
1.0375
1.03817
1.03879
1.03938
1.03994
1.04023
1.03965
1.0391
1.03856
1.03802
1.03746
1.03684
1.03607
1.03496
1.03312
1.02968
1.02261
1.00805
0.98241
0.973627
0.984465
0.996998
1.0094
1.01866
1.02541
1.02991
1.03278
1.03462
1.03585
1.03677
1.03752
1.03819
1.0388
1.03938
1.03994
1.04025
1.03968
1.03913
1.03858
1.03804
1.03749
1.03686
1.03609
1.03497
1.03312
1.02964
1.02251
1.0079
0.982324
0.973631
0.984391
0.996843
1.00925
1.01853
1.02532
1.02987
1.03278
1.03463
1.03587
1.03679
1.03754
1.0382
1.03881
1.03939
1.03993
1.04027
1.0397
1.03915
1.03861
1.03807
1.03751
1.03689
1.03611
1.03498
1.03311
1.0296
1.02242
1.00776
0.982241
0.973635
0.984319
0.996692
1.0091
1.01841
1.02523
1.02983
1.03277
1.03464
1.03589
1.03681
1.03756
1.03822
1.03882
1.03939
1.03993
1.04029
1.03973
1.03918
1.03864
1.0381
1.03754
1.03691
1.03613
1.035
1.03311
1.02957
1.02233
1.00761
0.98216
0.973639
0.984248
0.996544
1.00895
1.01828
1.02515
1.02978
1.03275
1.03465
1.03591
1.03683
1.03758
1.03823
1.03883
1.0394
1.03993
1.04031
1.03975
1.0392
1.03866
1.03812
1.03756
1.03694
1.03615
1.03501
1.0331
1.02953
1.02223
1.00747
0.982081
0.973644
0.984179
0.996399
1.0088
1.01815
1.02506
1.02974
1.03274
1.03466
1.03593
1.03685
1.0376
1.03825
1.03884
1.0394
1.03993
1.04034
1.03977
1.03923
1.03869
1.03815
1.03759
1.03696
1.03617
1.03502
1.0331
1.02949
1.02214
1.00732
0.982004
0.973648
0.984112
0.996256
1.00866
1.01802
1.02497
1.02969
1.03273
1.03466
1.03595
1.03687
1.03762
1.03826
1.03885
1.03941
1.03994
1.04036
1.0398
1.03925
1.03871
1.03818
1.03762
1.03698
1.03619
1.03503
1.03309
1.02945
1.02204
1.00718
0.981928
0.973653
0.984046
0.996117
1.00851
1.01789
1.02488
1.02964
1.03271
1.03467
1.03596
1.03689
1.03764
1.03828
1.03886
1.03941
1.03994
1.04038
1.03982
1.03928
1.03874
1.0382
1.03764
1.03701
1.0362
1.03504
1.03308
1.02941
1.02195
1.00704
0.981854
0.973658
0.983982
0.995981
1.00837
1.01776
1.02478
1.02959
1.0327
1.03468
1.03598
1.03691
1.03765
1.03829
1.03887
1.03942
1.03994
1.0404
1.03984
1.0393
1.03876
1.03823
1.03766
1.03703
1.03622
1.03505
1.03308
1.02937
1.02185
1.0069
0.981782
0.973663
0.983919
0.995847
1.00823
1.01764
1.02469
1.02954
1.03268
1.03468
1.036
1.03693
1.03767
1.03831
1.03888
1.03943
1.03994
1.04042
1.03986
1.03932
1.03879
1.03825
1.03769
1.03705
1.03624
1.03506
1.03307
1.02933
1.02176
1.00677
0.981712
0.973669
0.983857
0.995715
1.00805
1.01751
1.0246
1.02948
1.03266
1.03468
1.03601
1.03695
1.03769
1.03832
1.0389
1.03943
1.03994
1.04042
1.03989
1.03935
1.03881
1.03828
1.03771
1.03707
1.03626
1.03506
1.03306
1.02928
1.02166
1.00663
0.981643
0.973674
0.983797
0.995587
1.00787
1.01738
1.02451
1.02943
1.03264
1.03469
1.03603
1.03697
1.03771
1.03834
1.03891
1.03944
1.03994
1.04042
1.03991
1.03937
1.03884
1.0383
1.03773
1.03709
1.03627
1.03507
1.03305
1.02924
1.02157
1.0065
0.981575
0.97368
0.983738
0.995461
1.00769
1.01726
1.02441
1.02938
1.03262
1.03469
1.03604
1.03699
1.03773
1.03835
1.03892
1.03944
1.03994
1.04042
1.03993
1.03939
1.03886
1.03832
1.03776
1.03711
1.03629
1.03508
1.03304
1.0292
1.02147
1.00637
0.981509
0.973685
0.983681
0.995337
1.00752
1.01713
1.02432
1.02932
1.03259
1.03469
1.03605
1.03701
1.03774
1.03837
1.03893
1.03945
1.03994
1.04041
1.03995
1.03941
1.03888
1.03834
1.03778
1.03713
1.03631
1.03509
1.03303
1.02915
1.02138
1.00623
0.981444
0.973691
0.983625
0.995215
1.00735
1.01701
1.02422
1.02926
1.03257
1.03468
1.03606
1.03702
1.03776
1.03838
1.03894
1.03946
1.03994
1.04041
1.03997
1.03943
1.0389
1.03837
1.0378
1.03715
1.03632
1.03509
1.03302
1.02911
1.02128
1.0061
0.981381
0.973697
0.98357
0.995096
1.00718
1.01688
1.02413
1.0292
1.03254
1.03468
1.03607
1.03704
1.03778
1.03839
1.03895
1.03946
1.03995
1.04041
1.03998
1.03945
1.03892
1.03839
1.03782
1.03717
1.03633
1.0351
1.03301
1.02906
1.02118
1.00598
0.981319
0.973703
0.983516
0.994979
1.00701
1.01676
1.02404
1.02915
1.03252
1.03468
1.03608
1.03706
1.03779
1.03841
1.03896
1.03947
1.03995
1.0404
1.04
1.03947
1.03895
1.03841
1.03784
1.03719
1.03635
1.0351
1.03299
1.02902
1.02109
1.00585
0.981258
0.97371
0.983463
0.994864
1.00685
1.01663
1.02394
1.02909
1.03249
1.03467
1.03609
1.03707
1.03781
1.03842
1.03897
1.03947
1.03995
1.0404
1.04002
1.03949
1.03897
1.03843
1.03786
1.03721
1.03636
1.03511
1.03298
1.02897
1.02099
1.00572
0.981199
0.973716
0.983412
0.994751
1.00669
1.01651
1.02384
1.02903
1.03246
1.03467
1.0361
1.03709
1.03782
1.03844
1.03898
1.03948
1.03995
1.0404
1.04004
1.03951
1.03899
1.03845
1.03788
1.03723
1.03638
1.03511
1.03296
1.02892
1.0209
1.0056
0.98114
0.973722
0.983361
0.99464
1.00653
1.01639
1.02375
1.02896
1.03243
1.03466
1.03611
1.0371
1.03784
1.03845
1.03899
1.03949
1.03996
1.0404
1.04006
1.03953
1.03901
1.03847
1.0379
1.03724
1.03639
1.03511
1.03295
1.02888
1.0208
1.00547
0.981083
0.973729
0.983312
0.994531
1.00637
1.01627
1.02365
1.0289
1.0324
1.03465
1.03612
1.03711
1.03785
1.03846
1.039
1.03949
1.03996
1.0404
1.04007
1.03955
1.03903
1.03849
1.03792
1.03726
1.0364
1.03512
1.03293
1.02883
1.02071
1.00535