/*--------------------------------*- C++ -*----------------------------------*\
  =========                 |
  \\      /  F ield         | OpenFOAM: The Open Source CFD Toolbox
   \\    /   O peration     | Website:  https://openfoam.org
    \\  /    A nd           | Version:  8
     \\/     M anipulation  |
\*---------------------------------------------------------------------------*/
FoamFile
{
    version     2.0;
    format      ascii;
    class       volScalarField;
    location    "1";
    object      N03;
}
// * * * * * * * * * * * * * * * * * * * * * * * * * * * * * * * * * * * * * //

dimensions      [0 0 0 0 0 0 0];

internalField   nonuniform List<scalar> 
6300
(
170.724
852.239
985.097
990.856
993.013
994.252
995.056
995.626
996.061
996.41
996.7
996.949
997.174
997.443
998.205
998.897
998.096
998.213
998.32
998.414
998.5
998.577
998.648
998.713
998.773
998.827
998.874
998.906
998.877
998.502
87.6543
702.09
963.379
978.713
983.851
986.817
988.742
990.11
991.153
991.988
992.681
993.274
993.822
994.494
996.056
997.324
995.877
996.144
996.39
996.603
996.795
996.969
997.128
997.272
997.404
997.525
997.63
997.699
997.631
996.8
57.2475
592.841
940.356
966.048
973.891
978.583
981.698
983.939
985.655
987.032
988.179
989.179
990.191
991.899
994.274
995.346
993.392
993.831
994.235
994.584
994.898
995.184
995.443
995.679
995.895
996.091
996.261
996.372
996.256
994.896
42.7809
511.906
915.921
953.1
963.395
969.745
974.06
977.211
979.644
981.608
983.256
984.726
986.314
989.044
992.128
993.013
990.668
991.299
991.88
992.381
992.833
993.242
993.613
993.952
994.261
994.541
994.783
994.938
994.762
992.807
35.3349
453.956
891.061
940.264
952.771
960.653
966.114
970.159
973.313
975.878
978.052
980.041
982.279
985.976
989.566
989.453
987.759
988.595
989.364
990.028
990.626
991.168
991.66
992.108
992.516
992.886
993.204
993.402
993.153
990.543
31.543
413.104
866.526
927.617
942.145
951.436
957.975
962.88
966.743
969.911
972.63
975.177
978.11
982.705
986.655
985.782
984.689
985.74
986.706
987.54
988.292
988.973
989.591
990.154
990.668
991.132
991.529
991.77
991.434
988.115
29.6999
384.423
842.923
915.178
931.583
942.173
949.721
955.445
959.996
963.764
967.041
970.176
973.827
979.245
983.452
982.012
981.475
982.754
983.919
984.93
985.842
986.668
987.418
988.101
988.723
989.286
989.764
990.046
989.607
985.534
28.9614
364.239
820.679
902.959
921.123
932.92
941.411
947.91
953.125
957.485
961.328
965.073
969.446
975.611
980.006
978.157
978.137
979.652
981.019
982.212
983.288
984.262
985.148
985.954
986.689
987.352
987.913
988.234
987.678
982.81
28.903
349.97
800.028
890.964
910.791
923.713
933.086
940.32
946.172
951.115
955.543
959.998
965.673
972.499
976.356
974.227
974.694
976.448
978.019
979.395
980.638
981.765
982.789
983.722
984.572
985.337
985.982
986.337
985.649
979.95
29.2996
339.86
781.046
879.197
900.6
914.576
924.777
932.705
939.171
944.691
949.725
954.954
961.816
969.154
972.537
970.233
971.161
973.154
974.93
976.492
977.904
979.184
980.349
981.41
982.377
983.246
983.974
984.36
983.525
976.966
30.0235
332.718
763.696
867.656
890.559
905.527
916.507
925.094
932.151
938.244
943.905
949.941
957.875
965.606
968.581
966.189
967.551
969.782
971.763
973.512
975.093
976.529
977.834
979.025
980.11
981.084
981.894
982.305
981.309
973.864
30.997
327.726
747.867
856.34
880.671
896.577
908.292
917.505
925.134
931.797
938.103
944.956
953.836
961.76
963.588
962.106
963.877
966.344
968.528
970.463
972.214
973.805
975.253
976.574
977.777
978.855
979.745
980.177
979.004
970.653
32.1688
324.312
733.413
845.244
870.939
887.733
900.146
909.955
918.14
925.373
932.335
939.991
949.693
957.678
958.642
957.993
960.149
962.849
965.234
967.354
969.275
971.02
972.61
974.061
975.382
976.564
977.533
977.979
976.614
967.341
33.5022
322.063
720.17
834.365
861.36
879
892.076
902.458
911.187
919.001
926.703
935.674
945.45
953.414
953.744
953.858
956.38
959.306
961.889
964.193
966.282
968.181
969.912
971.492
972.93
974.215
975.26
975.713
974.142
963.936
34.9686
320.674
707.975
823.696
851.935
870.382
884.09
895.024
904.29
912.703
921.199
931.38
941.801
949.009
948.898
949.708
952.578
955.723
958.502
960.987
963.242
965.293
967.164
968.872
970.427
971.812
972.93
973.383
971.592
960.443
36.5443
319.911
696.673
813.231
842.658
861.879
876.193
887.662
897.463
906.494
915.813
927.089
937.972
944.501
944.101
945.552
948.75
952.108
955.08
957.743
960.161
962.363
964.372
966.206
967.876
969.36
970.546
970.993
968.967
956.87
38.2081
319.595
686.125
802.963
833.528
853.491
868.39
880.381
890.717
900.382
910.529
922.771
933.865
939.011
939.355
941.393
944.904
948.468
951.628
954.467
957.046
959.395
961.54
963.499
965.281
966.861
968.112
968.544
966.27
953.223
39.9403
319.582
676.207
792.885
824.539
845.219
860.683
873.187
884.062
894.373
905.333
918.409
929.543
933.611
934.659
937.239
941.044
944.809
948.154
951.164
953.9
956.395
958.673
960.754
962.647
964.32
965.632
966.04
963.505
949.508
41.7223
319.757
666.811
782.989
815.689
837.062
853.075
866.086
877.516
888.563
900.883
913.992
925.06
928.304
930.013
933.093
937.178
941.137
944.662
947.84
950.731
953.367
955.775
957.977
959.977
961.74
963.107
963.483
960.674
945.731
43.5359
320.028
657.845
773.267
806.972
829.018
845.568
859.087
871.094
882.936
896.502
910.219
920.458
923.089
925.419
928.962
933.31
937.458
941.159
944.5
947.541
950.316
952.852
955.17
957.274
959.124
960.541
960.876
957.78
941.898
45.3635
320.319
649.229
763.712
798.385
821.086
838.164
852.195
864.802
877.472
892.162
906.298
915.772
917.963
920.876
924.85
929.444
933.776
937.648
941.148
944.336
947.246
949.906
952.338
954.544
956.476
957.936
958.222
954.827
938.013
47.1875
320.569
640.899
754.315
789.923
813.264
830.865
845.414
858.645
872.152
887.829
902.128
910.137
912.926
916.385
920.76
925.587
930.096
934.134
937.789
941.119
944.161
946.942
949.484
951.788
953.798
955.296
955.522
951.817
934.083
48.9911
320.729
632.799
745.07
781.582
805.552
823.674
838.763
852.722
867.672
883.479
897.767
904.609
907.975
911.947
916.693
921.741
926.422
930.622
934.427
937.896
941.064
943.963
946.612
949.009
951.093
952.623
952.78
948.754
930.111
50.7576
320.756
624.883
735.968
773.359
797.949
816.595
832.253
847.013
863.301
879.812
893.263
899.184
903.109
907.562
912.654
917.91
922.759
927.115
931.065
934.668
937.961
940.973
943.725
946.212
948.365
949.919
949.997
945.64
926.103
52.4713
320.62
617.113
727.004
765.25
790.453
809.631
825.888
841.497
859.006
876.014
888.657
893.868
898.326
903.233
908.643
914.098
919.109
923.617
927.708
931.441
934.853
937.975
940.826
943.399
945.615
947.187
947.177
942.479
922.063
54.1171
320.295
609.459
718.171
757.252
783.065
802.786
819.672
836.15
854.745
871.979
883.093
888.661
893.626
898.959
904.664
910.309
915.476
920.131
924.358
928.216
931.744
934.972
937.918
940.573
942.847
944.429
944.321
939.272
917.996
55.6807
319.761
601.896
709.461
749.36
775.785
796.073
813.705
831.733
850.493
867.763
877.623
883.56
889.007
894.739
900.719
906.544
911.863
916.66
921.019
924.998
928.637
931.967
935.004
937.735
940.063
941.648
941.431
936.023
913.905
57.1491
319.003
594.403
700.871
741.574
768.614
789.503
807.966
827.443
846.968
863.408
872.248
878.562
884.467
890.574
896.81
902.808
908.273
913.207
917.693
921.789
925.535
928.962
932.087
934.89
937.265
938.846
938.509
932.734
909.795
58.5103
318.01
586.963
692.393
733.891
761.556
783.081
802.435
823.247
843.33
858.952
866.968
873.666
880.007
886.464
892.939
899.102
904.709
909.776
914.384
918.592
922.441
925.962
929.169
932.04
934.455
936.024
935.559
929.409
905.67
59.7538
316.777
579.564
684.023
726.31
754.624
776.914
797.946
819.105
839.471
853.531
861.783
868.87
875.627
882.408
889.107
895.429
901.173
906.367
911.094
915.41
919.357
922.967
926.253
929.186
931.637
933.185
932.581
926.05
901.534
60.8703
315.3
572.195
675.758
718.832
747.826
770.984
793.617
815.754
835.441
848.197
856.693
864.171
871.322
878.407
885.318
891.791
897.668
902.985
907.825
912.245
916.286
919.981
923.341
926.332
928.811
930.33
929.578
922.66
897.39
61.8523
313.578
564.848
667.592
711.458
741.17
765.272
789.414
812.315
831.278
842.949
851.696
859.567
867.092
874.462
881.571
888.191
894.195
899.631
904.58
909.099
913.231
917.007
920.435
923.479
925.981
927.463
926.552
919.241
893.242
62.6936
311.613
557.519
659.525
704.199
734.766
760.733
785.295
808.676
826.113
837.788
846.793
855.059
862.937
870.573
877.87
884.63
890.758
896.308
901.361
905.975
910.194
914.046
917.539
920.63
923.148
924.584
923.506
915.796
889.094
63.3898
309.409
550.202
651.554
697.064
728.599
756.366
782.046
804.879
821.007
832.712
841.985
850.644
858.853
866.74
874.215
881.11
887.357
893.018
898.171
902.876
907.176
911.1
914.654
917.787
920.314
921.696
920.44
912.329
884.948
63.938
306.972
542.897
643.69
690.174
723.795
752.14
778.736
800.956
815.963
827.723
837.283
846.319
854.842
862.965
870.608
877.634
883.996
889.762
895.011
899.803
904.181
908.173
911.782
914.951
917.481
918.801
917.357
908.841
880.809
64.3371
304.309
535.613
636.062
684.916
719.186
748.9
775.253
796.008
810.982
822.823
832.687
842.084
850.902
859.247
867.052
874.202
880.675
886.542
891.884
896.758
901.209
905.266
908.926
912.126
914.65
915.899
914.259
905.335
876.68
64.5879
301.438
528.494
630.54
679.771
714.743
745.643
771.632
791.115
806.066
818.012
828.194
837.935
847.034
855.589
863.547
870.818
877.397
883.362
888.791
893.744
898.265
902.38
906.086
909.312
911.825
912.994
911.148
901.814
872.563
64.8755
302.101
524.305
625.114
674.833
711.43
742.252
766.941
786.276
801.218
813.291
823.803
833.873
843.237
851.991
860.095
867.482
874.164
880.222
885.734
890.761
895.348
899.519
903.266
906.511
909.006
910.086
908.025
898.281
868.463
68.9125
302.613
520.238
621.348
671.257
708.13
738.753
762.289
781.492
796.44
808.662
819.512
829.896
839.511
848.454
856.698
864.196
870.977
877.124
882.716
887.814
892.462
896.683
900.467
903.726
906.194
907.177
904.894
894.738
864.382
72.5508
303.098
518.247
617.671
667.743
704.732
734.149
757.677
776.764
791.733
804.126
815.32
826.004
835.858
844.981
853.357
860.963
867.839
874.07
879.738
884.902
889.607
893.875
897.691
900.957
903.393
904.27
901.755
891.188
860.323
77.9834
305.916
516.264
614.071
664.178
700.148
729.602
753.106
772.094
787.103
799.681
811.226
822.197
832.278
841.571
850.075
857.784
864.75
871.062
876.801
882.029
886.787
891.097
894.939
898.207
900.603
901.365
898.612
887.634
856.29
83.0541
308.617
514.287
610.44
659.312
695.631
725.108
748.579
767.483
782.548
795.327
807.231
818.476
828.773
838.228
846.853
854.661
861.713
868.102
873.909
879.195
884.002
888.35
892.213
895.478
897.825
898.464
895.464
884.078
852.285
87.7569
309.11
510.326
605.254
654.556
691.178
720.667
744.096
762.936
778.071
791.065
803.334
814.841
825.344
834.952
843.693
851.596
858.731
865.192
871.062
876.402
881.255
885.635
889.515
892.77
895.062
895.569
892.316
880.524
848.312
90.5349
309.637
506.476
600.221
649.906
686.787
716.278
739.662
758.453
773.673
786.897
799.538
811.296
821.994
831.747
840.599
848.591
855.804
862.334
868.263
873.653
878.546
882.956
886.847
890.085
892.314
892.681
889.168
876.973
844.373
93.4791
310.2
502.739
595.335
645.357
682.46
711.942
735.281
754.036
769.358
782.851
795.845
807.842
818.725
828.616
837.572
845.649
852.935
859.529
865.513
870.95
875.878
880.312
884.209
887.424
889.583
889.801
886.022
873.429
840.472
96.5628
310.806
499.119
590.594
640.908
678.196
707.665
730.955
749.689
765.133
778.931
792.258
804.482
815.54
825.56
834.615
842.772
850.127
856.78
862.815
868.292
873.253
877.705
881.603
884.789
886.87
886.931
882.88
869.893
836.611
99.7848
311.486
495.632
586.004
636.563
674.004
703.446
726.689
745.416
761.003
775.141
788.781
801.222
812.443
822.585
831.731
839.963
847.382
854.089
860.169
865.684
870.671
875.137
879.03
882.18
884.176
884.072
879.744
866.37
832.793
103.187
312.253
492.288
581.565
632.325
669.884
699.291
722.485
741.221
756.976
771.486
785.422
798.065
809.439
819.694
828.925
837.225
844.702
851.458
857.578
863.125
868.134
872.609
876.491
879.599
881.501
881.225
876.615
862.86
829.02
106.769
313.13
489.097
577.283
628.198
665.843
695.203
718.351
737.112
753.061
767.974
782.186
795.019
806.535
816.892
826.2
834.562
842.09
848.889
855.044
860.617
865.644
870.123
873.988
877.046
878.848
878.392
873.496
859.367
825.297
110.561
314.15
486.079
573.167
624.189
661.889
691.191
714.295
733.1
749.268
764.617
779.085
792.092
803.735
814.185
823.561
831.977
839.549
846.385
852.569
858.163
863.201
867.678
871.519
874.522
876.215
875.572
870.387
855.894
821.624
114.612
315.356
483.259
569.233
620.313
658.033
687.266
710.329
729.2
745.648
761.429
776.13
789.294
801.05
811.58
821.013
829.474
837.082
843.947
850.154
855.763
860.807
865.275
869.088
872.027
873.604
872.767
867.29
852.442
818.006
119.003
316.814
480.677
565.506
616.59
654.295
683.445
706.472
725.441
742.257
758.429
773.336
786.636
798.488
809.083
818.562
827.057
834.693
841.58
847.802
853.419
858.461
862.915
866.692
869.561
871.014
869.976
864.206
849.013
814.444
123.831
318.608
478.388
562.025
613.052
650.701
679.752
702.75
721.857
739.124
755.64
770.723
784.135
796.062
806.704
816.215
824.732
832.385
839.284
845.513
851.132
856.166
860.599
864.332
867.123
868.444
867.199
861.135
845.609
810.941
129.32
320.894
476.487
558.857
609.754
647.297
676.229
699.207
718.496
736.285
753.092
768.313
781.807
793.784
804.453
813.979
822.505
830.163
837.063
843.291
848.902
853.921
858.325
862.007
864.712
865.895
864.436
858.077
842.232
807.498
135.644
323.856
475.099
556.094
606.767
644.14
672.928
695.908
715.519
733.792
750.824
766.138
779.676
791.672
802.344
811.865
820.382
828.031
834.921
841.136
846.731
851.726
856.093
859.716
862.327
863.362
861.685
855.032
838.882
804.118
143.69
327.992
474.512
553.937
604.246
641.359
669.967
692.982
713.043
731.699
748.879
764.227
777.764
789.743
800.389
809.88
818.37
825.993
832.86
839.05
844.618
849.58
853.9
857.456
859.964
860.843
858.943
851.998
835.559
800.8
153.643
333.703
475.008
552.585
602.337
639.067
667.464
690.651
711.197
730.102
747.328
762.636
776.114
788.029
798.612
808.044
816.482
824.06
830.886
837.038
842.566
847.483
851.747
855.224
857.619
858.335
856.204
848.969
832.258
797.542
169.894
343.012
477.664
552.758
601.582
637.715
665.834
689.21
710.045
729.04
746.195
761.375
774.728
786.527
797.006
806.348
814.71
822.221
828.989
835.088
840.564
845.425
849.621
853.01
855.282
855.825
853.459
845.938
828.976
794.345
192.201
356.854
483.01
554.742
602.156
637.516
665.504
688.975
709.826
728.694
745.617
760.552
773.691
785.306
795.628
804.837
813.086
820.504
827.19
833.216
838.623
843.412
847.527
850.813
852.949
853.308
850.702
842.897
825.701
791.188
238.019
382.072
494.619
560.9
605.781
639.663
666.821
689.87
710.399
728.908
745.442
760.027
772.875
784.251
794.374
803.419
811.534
818.839
825.43
831.371
836.699
841.408
845.433
848.61
850.604
850.775
847.929
839.854
822.454
788.104
228.469
364.453
476.941
547.564
595.465
631.25
659.735
683.74
704.967
724.035
741.049
756.05
769.249
780.918
791.287
800.542
808.835
816.295
823.019
829.077
834.507
839.305
843.408
846.652
848.699
848.904
846.062
837.932
820.365
785.625
218.98
353.117
464.589
537.126
586.864
623.971
653.399
678.079
699.805
719.291
736.691
752.057
765.579
777.527
788.135
797.594
806.065
813.679
820.538
826.715
832.25
837.141
841.326
844.64
846.745
846.99
844.157
835.983
818.263
783.151
208.05
342.79
454.081
527.95
579.053
617.207
647.416
672.674
694.85
714.748
732.528
748.231
762.045
774.243
785.067
794.714
803.348
811.105
818.09
824.378
830.012
834.991
839.254
842.635
844.795
845.077
842.252
834.032
816.161
780.688
197.925
333.802
444.985
519.777
571.924
610.937
641.809
667.572
690.137
710.358
728.448
744.457
758.542
770.975
782.003
791.829
800.621
808.516
815.624
822.022
827.755
832.822
837.163
840.612
842.828
843.148
840.333
832.07
814.052
778.228
188.506
325.408
436.583
512.132
565.169
604.939
636.41
662.637
685.567
706.089
724.47
740.762
755.096
767.747
778.967
788.962
797.903
805.933
813.16
819.665
825.494
830.648
835.066
838.582
840.853
841.212
838.407
830.103
811.941
775.773
179.983
317.563
428.711
504.888
558.702
599.155
631.178
657.84
681.114
701.925
720.567
737.12
751.687
764.543
775.946
786.103
795.189
803.348
810.692
817.303
823.226
828.466
832.961
836.546
838.873
839.271
836.478
828.132
809.828
773.323
172.308
310.157
421.224
497.933
552.443
593.528
626.069
653.144
676.749
697.836
716.727
733.525
748.311
761.363
772.94
783.253
792.48
800.765
808.223
814.938
820.955
826.28
830.852
834.505
836.888
837.327
834.545
826.161
807.716
770.878
165.415
303.151
414.06
491.215
546.355
588.027
621.059
648.53
672.455
693.81
712.941
729.97
744.964
758.203
769.947
780.412
789.775
798.184
805.755
812.571
818.682
824.092
828.741
832.461
834.902
835.38
832.612
824.192
805.605
768.438
159.22
296.508
407.175
484.698
540.411
582.635
616.134
643.985
668.22
689.836
709.202
726.45
741.643
755.06
766.967
777.578
787.075
795.605
803.287
810.204
816.408
821.903
826.628
830.417
832.914
833.433
830.683
822.227
803.496
766.003
153.635
290.205
400.542
478.361
534.596
577.337
611.282
639.5
664.037
685.906
705.503
722.961
738.344
751.935
763.998
774.752
784.38
793.029
800.82
807.838
814.134
819.713
824.515
828.372
830.926
831.49
828.757
820.262
801.388
763.573
148.58
284.219
394.143
472.188
528.896
572.126
606.498
635.071
659.899
682.021
701.842
719.501
735.067
748.825
761.041
771.935
781.69
790.457
798.356
805.473
811.861
817.524
822.402
826.326
828.94
829.55
826.833
818.299
799.281
761.148
143.981
278.532
387.962
466.17
523.306
566.996
601.777
630.692
655.811
678.178
698.215
716.068
731.811
745.731
758.095
769.126
779.006
787.89
795.895
803.111
809.589
815.335
820.289
824.283
826.959
827.613
824.911
816.337
797.174
758.728
139.773
273.126
381.988
460.296
517.819
561.942
597.123
626.374
651.771
674.375
694.62
712.66
728.574
742.651
755.16
766.326
776.33
785.327
793.437
800.75
807.318
813.147
818.179
822.245
824.982
825.679
822.991
814.375
795.067
756.313
135.899
267.987
376.211
454.562
512.431
556.975
592.539
622.111
647.776
670.609
691.054
709.277
725.358
739.587
752.238
763.534
773.659
782.768
790.983
798.392
805.049
810.962
816.073
820.21
823.007
823.747
821.072
812.414
792.961
753.904
132.312
263.097
370.624
448.961
507.147
552.089
588.018
617.9
643.826
666.881
687.52
705.917
722.159
736.537
749.326
760.751
770.995
780.214
788.532
796.036
802.783
808.782
813.972
818.179
821.035
821.817
819.154
810.453
790.856
751.5
128.969
258.445
365.217
443.489
501.963
547.278
583.557
613.743
639.919
663.187
684.012
702.578
718.977
733.501
746.425
757.976
768.337
777.666
786.085
793.685
800.524
806.607
811.874
816.151
819.065
819.888
817.237
808.493
788.751
749.101
125.835
254.015
359.986
438.143
496.875
542.54
579.158
609.635
636.05
659.523
680.53
699.261
715.812
730.478
743.535
755.209
765.686
775.122
783.643
791.34
798.269
804.436
809.78
814.126
817.098
817.962
815.321
806.533
786.647
746.708
122.881
249.795
354.922
432.923
491.877
537.87
574.819
605.571
632.218
655.89
677.073
695.964
712.663
727.468
740.655
752.451
763.042
772.585
781.208
789.001
796.019
802.269
807.69
812.103
815.132
816.036
813.406
804.573
784.544
744.32
120.08
245.774
350.02
427.824
486.967
533.27
570.533
601.55
628.422
652.286
673.64
692.687
709.531
724.472
737.787
749.703
760.405
770.055
778.779
786.667
793.774
800.106
805.602
810.084
813.169
814.113
811.491
802.613
782.441
741.939
117.412
241.939
345.275
422.842
482.141
528.739
566.298
597.57
624.659
648.711
670.231
689.429
706.415
721.49
734.929
746.963
757.776
767.532
776.357
784.338
791.533
797.947
803.518
808.067
811.208
812.19
809.578
800.654
780.339
739.563
114.859
238.28
340.681
417.974
477.398
524.272
562.111
593.629
620.929
645.164
666.845
686.191
703.316
718.52
732.083
744.233
755.155
765.017
773.941
782.015
789.297
795.792
801.437
806.052
809.249
810.269
807.665
798.695
778.239
737.192
112.405
234.786
336.231
413.216
472.736
519.867
557.972
589.727
617.232
641.643
663.481
682.972
700.232
715.565
729.248
741.512
752.542
762.509
771.531
779.697
787.065
793.64
799.359
804.04
807.292
808.35
805.754
796.736
776.139
734.828
110.038
231.449
331.923
408.565
468.151
515.523
553.879
585.863
613.566
638.149
660.141
679.772
697.165
712.622
726.425
738.8
749.938
760.007
769.127
777.385
784.838
791.492
797.285
802.03
805.337
806.432
803.843
794.778
774.041
732.47
107.746
228.258
327.75
404.019
463.644
511.237
549.831
582.036
609.932
634.682
656.822
676.591
694.113
709.693
723.612
736.098
747.341
757.513
766.729
775.077
782.615
789.348
795.213
800.023
803.384
804.516
801.933
792.821
771.944
730.118
105.521
225.205
323.708
399.575
459.211
507.008
545.827
578.246
606.327
631.24
653.526
673.428
691.077
706.778
720.811
733.406
744.754
755.027
764.337
772.775
780.396
787.208
793.144
798.019
801.432
802.601
800.024
790.864
769.848
727.772
103.356
222.283
319.793
395.231
454.852
502.835
541.867
574.491
602.753
627.823
650.251
670.284
688.057
703.876
718.021
730.723
742.174
752.547
761.951
770.478
778.182
785.071
791.079
796.017
799.483
800.687
798.116
788.908
767.754
725.433
101.242
219.482
315.999
390.984
450.566
498.716
537.95
570.771
599.208
624.432
646.997
667.158
685.052
700.987
715.243
728.05
739.603
750.074
759.572
768.186
775.973
782.938
789.017
794.018
797.537
798.775
796.209
786.952
765.662
723.1
99.176
216.797
312.324
386.832
446.351
494.65
534.076
567.086
595.693
621.065
643.764
664.05
682.063
698.111
712.476
725.387
737.04
747.609
757.198
765.899
773.767
780.809
786.958
792.021
795.592
796.865
794.304
784.998
763.571
720.773
97.1522
214.219
308.763
382.772
442.205
490.637
530.242
563.435
592.206
617.723
640.553
660.96
679.089
695.249
709.72
722.733
734.486
745.151
754.831
763.618
771.567
778.684
784.902
790.028
793.649
794.957
792.399
783.044
761.482
718.454
95.1668
211.744
305.311
378.803
438.129
486.675
526.45
559.818
588.747
614.405
637.362
657.889
676.131
692.4
706.976
720.09
731.94
742.7
752.471
761.342
769.371
776.563
782.849
788.036
791.709
793.05
790.496
781.091
759.395
716.14
93.2166
209.364
301.965
374.923
434.12
482.764
522.699
556.235
585.317
611.111
634.193
654.835
673.188
689.564
704.244
717.456
729.403
740.257
750.116
759.071
767.18
774.446
780.8
786.048
789.771
791.145
788.594
779.14
757.31
713.834
91.2986
207.074
298.722
371.13
430.177
478.904
518.988
552.684
581.915
607.842
631.044
651.798
670.261
686.742
701.523
714.832
726.874
737.821
747.768
756.806
764.993
772.332
778.755
784.063
787.835
789.242
786.694
777.189
755.228
711.534
89.4105
204.868
295.577
367.422
426.301
475.093
515.316
549.166
578.54
604.596
627.915
648.78
667.349
683.933
698.813
712.219
724.354
735.392
745.426
754.547
762.811
770.223
776.712
782.08
785.902
787.341
784.795
775.24
753.147
709.241
87.5501
202.742
292.528
363.796
422.489
471.33
511.684
545.681
575.193
601.373
624.807
645.779
664.452
681.137
696.115
709.615
721.842
732.971
743.091
752.293
760.634
768.118
774.674
780.101
783.971
785.441
782.897
773.292
751.069
706.955
85.7157
200.691
289.571
360.251
418.741
467.616
508.091
542.228
571.873
598.174
621.718
642.796
661.57
678.355
693.429
707.022
719.34
730.557
740.762
750.045
758.462
766.017
772.638
778.124
782.043
783.544
781.001
771.345
748.994
704.677
83.9057
198.711
286.702
356.786
415.055
463.95
504.537
538.806
568.58
594.998
618.651
639.831
658.704
675.585
690.754
704.438
716.845
728.151
738.44
747.802
756.294
763.92
770.607
776.151
780.117
781.649
779.106
769.4
746.921
702.405
82.1189
196.797
283.919
353.398
411.432
460.331
501.02
535.416
565.314
591.845
615.603
636.882
655.853
672.83
688.091
701.865
714.36
725.752
736.124
745.565
754.132
761.828
768.579
774.181
778.194
779.756
777.213
767.456
744.851
700.141
80.354
194.945
281.219
350.086
407.869
456.759
497.541
532.058
562.074
588.716
612.575
633.952
653.018
670.087
685.439
699.302
711.883
723.361
733.815
743.334
751.975
759.74
766.555
772.214
776.274
777.865
775.322
765.514
742.783
697.883
78.6102
193.151
278.598
346.847
404.366
453.233
494.1
528.73
558.861
585.609
609.567
631.038
650.197
667.358
682.8
696.749
709.416
720.978
731.512
741.109
749.822
757.656
764.535
770.25
774.356
775.977
773.433
763.574
740.719
695.633
76.8865
191.413
276.054
343.681
400.922
449.752
490.696
525.433
555.674
582.524
606.579
628.142
647.392
664.642
680.171
694.206
706.957
718.603
729.217
738.889
747.675
755.577
762.518
768.289
772.441
774.09
771.546
761.635
738.657
693.391
75.1822
189.727
273.584
340.586
397.537
446.317
487.329
522.167
552.513
579.463
603.61
625.264
644.602
661.939
677.555
691.674
704.507
716.235
726.928
736.676
745.533
753.502
760.506
766.332
770.529
772.206
769.66
759.698
736.598
691.156
73.4967
188.09
271.185
337.56
394.208
442.926
483.998
518.931
549.378
576.423
600.661
622.402
641.827
659.25
674.95
689.152
702.066
713.875
724.646
734.468
743.396
751.432
758.497
764.378
768.62
770.325
767.776
757.763
734.543
688.928
71.8294
186.498
268.855
334.601
390.937
439.58
480.703
515.725
546.269
573.406
597.732
619.558
639.067
656.574
672.356
686.64
699.634
711.523
722.371
732.267
741.265
749.366
756.493
762.428
766.714
768.446
765.895
755.831
732.491
686.708
70.1798
184.95
266.591
331.708
387.72
436.277
477.444
512.549
543.185
570.411
594.822
616.73
636.322
653.911
669.775
684.138
697.211
709.179
720.103
730.072
739.139
747.305
754.492
760.481
764.811
766.569
764.015
753.9
730.442
684.496
68.5474
183.443
264.391
328.88
384.559
433.018
474.221
509.403
540.126
567.438
591.931
613.92
633.592
651.261
667.205
681.647
694.797
706.843
717.842
727.882
737.018
745.249
752.496
758.538
762.91
764.695
762.138
751.971
728.397
682.291
66.932
181.975
262.253
326.114
381.451
429.801
471.032
506.285
537.092
564.487
589.06
611.126
630.877
648.625
664.647
679.166
692.392
704.515
715.588
725.699
734.903
743.198
750.503
756.598
761.013
762.823
760.263
750.044
726.355
680.093
65.333
180.542
260.174
323.41
378.396
426.627
467.879
503.197
534.084
561.558
586.207
608.35
628.177
646.002
662.1
676.695
689.996
702.195
713.341
723.522
732.793
741.151
748.515
754.662
759.119
760.955
758.39
748.12
724.317
677.904
63.7504
179.144
258.153
320.765
375.393
423.495
464.76
500.138
531.1
558.651
583.374
605.59
625.491
643.392
659.566
674.235
687.609
699.882
711.101
721.352
730.688
739.109
746.531
752.73
757.229
759.088
756.519
746.198
722.283
675.722
62.1837
177.778
256.186
318.18
372.442
420.404
461.675
497.108
528.141
555.764
580.56
602.847
622.821
640.795
657.042
671.785
685.231
697.578
708.868
719.187
728.589
737.072
744.552
750.801
755.341
757.225
754.651
744.279
720.252
673.548
60.6329
176.443
254.273
315.651
369.541
417.355
458.624
494.106
525.206
552.9
577.764
600.121
620.166
638.211
654.531
669.346
682.863
695.282
706.642
717.029
726.496
735.04
742.576
748.877
753.457
755.364
752.785
742.362
718.225
671.382
59.0976
175.136
252.411
313.179
366.69
414.346
455.607
491.132
522.295
550.056
574.988
597.412
617.525
635.641
652.031
666.917
680.503
692.994
704.423
714.877
724.408
733.013
740.605
746.956
751.576
753.506
750.922
740.447
716.202
669.224
57.5777
173.856
250.599
310.761
363.888
411.377
452.623
488.186
519.409
547.234
572.23
594.719
614.899
633.083
649.543
664.498
678.153
690.714
702.212
712.732
722.326
730.991
738.639
745.038
749.698
751.652
749.061
738.535
714.183
667.074
56.0732
172.602
248.833
308.397
361.134
408.448
449.671
485.268
516.547
544.433
569.49
592.043
612.288
630.539
647.067
662.09
675.813
688.443
700.008
710.593
720.25
728.974
736.677
743.125
747.824
749.799
747.202
736.626
712.168
664.931
54.5838
171.372
247.114
306.084
358.427
405.559
446.752
482.378
513.708
541.652
566.77
589.383
609.692
628.008
644.602
659.692
673.481
686.179
697.811
708.46
718.179
726.961
734.719
741.216
745.953
747.95
745.347
734.719
710.157
662.797
53.1095
170.165
245.439
303.823
355.767
402.71
443.865
479.515
510.893
538.892
564.067
586.74
607.11
625.49
642.149
657.304
671.159
683.924
695.621
706.334
716.114
724.954
732.766
739.311
744.086
746.104
743.494
732.816
708.151
660.67
51.6502
168.979
243.807
301.611
353.152
399.899
441.009
476.679
508.102
536.153
561.383
584.113
604.543
622.985
639.708
654.927
668.846
681.677
693.438
704.215
714.055
722.953
730.817
737.409
742.222
744.261
741.643
730.915
706.148
658.552
50.2058
167.814
242.215
299.447
350.582
397.126
438.185
473.87
505.334
533.435
558.717
581.502
601.99
620.493
637.278
652.56
666.542
679.438
691.263
702.102
712.001
720.956
728.873
735.512
740.361
742.421
739.796
729.017
704.15
656.442
48.7764
166.668
240.663
297.331
348.057
394.392
435.392
471.088
502.588
530.737
556.069
578.907
599.452
618.014
634.86
650.204
664.248
677.207
689.096
699.995
709.954
718.964
726.934
733.619
738.504
740.584
737.951
727.121
702.157
654.339
47.3619
165.54
239.149
295.26
345.575
391.695
432.63
468.332
499.866
528.059
553.44
576.329
596.928
615.547
632.453
647.858
661.963
674.985
686.935
697.895
707.912
716.978
724.999
731.73
736.651
738.75
736.109
725.229
700.168
652.245
45.9623
164.429
237.672
293.235
343.136
389.035
429.898
465.602
497.167
525.401
550.828
573.766
594.419
613.094
630.058
645.523
659.687
672.771
684.782
695.802
705.876
714.997
723.069
729.845
734.802
736.92
734.269
723.34
698.183
650.159
44.5777
163.335
236.23
291.253
340.739
386.412
427.197
462.899
494.491
522.763
548.234
571.22
591.924
610.654
627.674
643.197
657.421
670.565
682.637
693.715
703.846
713.021
721.144
727.964
732.956
735.092
732.433
721.454
696.203
648.081
43.2081
162.257
234.823
289.313
338.383
383.824
424.525
460.221
491.836
520.145
545.658
568.69
589.443
608.226
625.302
640.883
655.164
668.367
680.499
691.635
701.822
711.051
719.223
726.087
731.114
733.268
730.6
719.572
694.227
646.011
41.8537
161.193
233.448
287.415
336.067
381.273
421.884
457.57
489.205
517.547
543.1
566.175
586.977
605.812
622.942
638.578
652.916
666.178
678.368
689.561
699.804
709.086
717.307
724.215
729.275
731.448
728.769
717.692
692.257
643.95
40.5144
160.143
232.104
285.558
333.792
378.756
419.271
454.943
486.595
514.969
540.559
563.676
584.525
603.41
620.593
636.284
650.678
663.997
676.245
687.495
697.792
707.126
715.396