/*--------------------------------*- C++ -*----------------------------------*\
  =========                 |
  \\      /  F ield         | OpenFOAM: The Open Source CFD Toolbox
   \\    /   O peration     | Website:  https://openfoam.org
    \\  /    A nd           | Version:  8
     \\/     M anipulation  |
\*---------------------------------------------------------------------------*/
FoamFile
{
    version     2.0;
    format      ascii;
    class       volScalarField;
    location    "1";
    object      N04;
}
// * * * * * * * * * * * * * * * * * * * * * * * * * * * * * * * * * * * * * //

dimensions      [0 0 0 0 0 0 0];

internalField   nonuniform List<scalar> 
6300
(
175.299
877.106
1006.75
1006.63
1005.66
1005
1004.53
1004.16
1003.86
1003.61
1003.4
1003.21
1003.04
1002.94
1003.19
1002.08
1001.96
1001.85
1001.76
1001.67
1001.58
1001.51
1001.44
1001.37
1001.31
1001.25
1001.2
1001.17
1001.18
1001.41
92.4372
741.199
1006.87
1011.2
1009.98
1009.04
1008.3
1007.71
1007.22
1006.79
1006.41
1006.08
1005.8
1005.66
1006.02
1003.94
1003.73
1003.53
1003.35
1003.19
1003.03
1002.89
1002.75
1002.63
1002.51
1002.41
1002.31
1002.24
1002.25
1002.66
61.3372
636.91
1001.17
1013.6
1012.75
1011.89
1011.13
1010.48
1009.91
1009.4
1008.94
1008.54
1008.25
1008.45
1007.45
1005.56
1005.29
1005.02
1004.78
1004.55
1004.34
1004.14
1003.95
1003.78
1003.62
1003.47
1003.33
1003.23
1003.24
1003.74
46.5812
558.592
991.285
1014.52
1014.34
1013.77
1013.16
1012.56
1012.01
1011.49
1011.02
1010.61
1010.39
1010.77
1008.66
1006.95
1006.64
1006.32
1006.04
1005.76
1005.5
1005.26
1005.03
1004.82
1004.62
1004.43
1004.26
1004.13
1004.14
1004.67
39.1033
502.763
978.8
1014.36
1015
1014.85
1014.48
1014.04
1013.57
1013.11
1012.68
1012.32
1012.2
1012.65
1009.64
1008.11
1007.77
1007.43
1007.12
1006.81
1006.52
1006.24
1005.98
1005.74
1005.51
1005.3
1005.1
1004.95
1004.94
1005.46
35.4769
464.186
965.036
1013.42
1014.94
1015.29
1015.23
1014.99
1014.67
1014.31
1013.96
1013.7
1013.69
1014.15
1010.41
1009.05
1008.71
1008.36
1008.03
1007.7
1007.39
1007.1
1006.82
1006.55
1006.3
1006.07
1005.85
1005.68
1005.66
1006.1
33.9468
438.139
951.033
1011.87
1014.33
1015.21
1015.5
1015.51
1015.37
1015.15
1014.93
1014.79
1014.89
1015.31
1010.98
1009.79
1009.46
1009.12
1008.8
1008.46
1008.14
1007.83
1007.54
1007.26
1007
1006.75
1006.52
1006.34
1006.29
1006.61
33.6382
420.976
937.527
1009.85
1013.28
1014.69
1015.36
1015.65
1015.72
1015.67
1015.6
1015.6
1015.82
1016.17
1011.38
1010.36
1010.05
1009.73
1009.41
1009.08
1008.76
1008.45
1008.16
1007.88
1007.6
1007.35
1007.11
1006.91
1006.84
1006.99
34.1121
410.09
924.982
1007.44
1011.86
1013.83
1014.89
1015.47
1015.77
1015.92
1016.02
1016.24
1016.93
1015.75
1011.62
1010.75
1010.48
1010.19
1009.89
1009.58
1009.27
1008.97
1008.67
1008.39
1008.12
1007.86
1007.62
1007.41
1007.31
1007.25
35.1383
403.689
913.64
1004.74
1010.14
1012.67
1014.13
1015.01
1015.55
1015.92
1016.23
1016.68
1017.63
1015.25
1011.71
1011
1010.77
1010.52
1010.25
1009.96
1009.66
1009.38
1009.1
1008.82
1008.55
1008.3
1008.05
1007.84
1007.7
1007.38
36.5893
400.548
903.583
1001.78
1008.18
1011.26
1013.11
1014.31
1015.11
1015.7
1016.24
1016.93
1017.99
1014.67
1011.66
1011.09
1010.93
1010.73
1010.49
1010.23
1009.96
1009.69
1009.43
1009.16
1008.91
1008.66
1008.42
1008.2
1008.01
1007.41
38.3902
399.821
894.786
998.615
1006.01
1009.63
1011.89
1013.4
1014.47
1015.3
1016.07
1016.98
1018.07
1014.02
1011.48
1011.06
1010.96
1010.82
1010.62
1010.39
1010.16
1009.91
1009.67
1009.42
1009.18
1008.94
1008.71
1008.48
1008.24
1007.33
40.4941
400.911
887.158
995.285
1003.66
1007.83
1010.48
1012.31
1013.65
1014.73
1015.74
1016.84
1017.89
1013.29
1011.19
1010.91
1010.88
1010.8
1010.65
1010.46
1010.26
1010.05
1009.83
1009.61
1009.38
1009.16
1008.94
1008.7
1008.4
1007.15
42.8691
403.384
880.574
991.817
1001.15
1005.86
1008.91
1011.06
1012.68
1014.02
1015.34
1017.13
1017.51
1012.49
1010.79
1010.65
1010.69
1010.68
1010.58
1010.44
1010.28
1010.1
1009.92
1009.72
1009.52
1009.31
1009.1
1008.86
1008.48
1006.86
45.4918
406.914
874.895
988.234
998.519
1003.76
1007.21
1009.67
1011.57
1013.2
1014.85
1017.02
1015.92
1011.63
1010.3
1010.28
1010.41
1010.46
1010.43
1010.34
1010.22
1010.08
1009.93
1009.76
1009.58
1009.4
1009.2
1008.95
1008.5
1006.48
48.3432
411.248
869.981
984.557
995.769
1001.54
1005.37
1008.16
1010.35
1012.27
1014.24
1016.6
1014.33
1010.7
1009.71
1009.82
1010.04
1010.16
1010.19
1010.15
1010.08
1009.99
1009.87
1009.73
1009.59
1009.42
1009.24
1008.99
1008.44
1006.02
51.4062
416.187
865.701
980.799
992.918
999.208
1003.43
1006.54
1009.03
1011.24
1013.49
1015.91
1012.74
1009.72
1009.03
1009.28
1009.58
1009.78
1009.87
1009.89
1009.87
1009.82
1009.75
1009.65
1009.53
1009.39
1009.22
1008.96
1008.32
1005.46
54.6648
421.569
861.935
976.974
989.979
996.787
1001.4
1004.83
1007.61
1010.12
1012.61
1015
1011.15
1008.68
1008.28
1008.66
1009.05
1009.32
1009.48
1009.56
1009.6
1009.59
1009.56
1009.5
1009.41
1009.3
1009.14
1008.87
1008.14
1004.83
58.103
427.26
858.574
973.091
986.961
994.284
999.281
1003.03
1006.13
1009
1012.26
1013.92
1009.55
1007.59
1007.46
1007.96
1008.45
1008.79
1009.02
1009.17
1009.26
1009.3
1009.31
1009.29
1009.24
1009.15
1009.02
1008.73
1007.88
1004.11
61.7042
433.146
855.525
969.159
983.874
991.709
997.089
1001.17
1004.59
1007.83
1011.54
1011.64
1007.94
1006.46
1006.57
1007.19
1007.78
1008.2
1008.5
1008.71
1008.86
1008.96
1009.01
1009.03
1009.01
1008.96
1008.84
1008.54
1007.57
1003.32
65.4509
439.135
852.708
965.183
980.725
989.068
994.831
999.243
1002.99
1006.6
1010.54
1009.4
1006.32
1005.28
1005.62
1006.37
1007.04
1007.55
1007.92
1008.2
1008.4
1008.55
1008.66
1008.72
1008.74
1008.71
1008.61
1008.29
1007.19
1002.46
69.3248
445.146
850.054
961.168
977.52
986.371
992.517
997.265
1001.35
1005.29
1009.3
1007.19
1004.69
1004.06
1004.61
1005.49
1006.25
1006.84
1007.29
1007.63
1007.9
1008.1
1008.25
1008.36
1008.41
1008.42
1008.33
1007.99
1006.76
1001.53
73.3068
451.108
847.505
957.117
974.264
983.622
990.155
995.254
999.752
1004.57
1007.88
1005.01
1003.06
1002.8
1003.56
1004.55
1005.41
1006.08
1006.6
1007.01
1007.34
1007.6
1007.8
1007.95
1008.05
1008.08
1008.01
1007.64
1006.27
1000.54
77.3766
456.964
845.012
953.034
970.962
980.828
987.752
993.219
998.155
1003.53
1005.24
1002.86
1001.41
1001.51
1002.46
1003.57
1004.52
1005.27
1005.87
1006.35
1006.74
1007.05
1007.3
1007.5
1007.63
1007.7
1007.64
1007.24
1005.72
999.48
81.5133
462.664
842.535
948.92
967.62
977.994
985.315
991.162
996.524
1002.22
1002.63
1000.72
999.764
1000.18
1001.32
1002.55
1003.59
1004.42
1005.09
1005.64
1006.09
1006.46
1006.77
1007
1007.18
1007.28
1007.23
1006.8
1005.12
998.365
85.6952
468.163
840.041
944.777
964.239
975.125
982.85
989.084
994.839
1000.69
1000.05
998.611
998.105
998.828
1000.14
1001.48
1002.61
1003.53
1004.27
1004.89
1005.41
1005.84
1006.19
1006.47
1006.69
1006.81
1006.77
1006.31
1004.46
997.194
89.9003
473.425
837.502
940.606
960.825
972.227
980.374
987.082
993.845
998.979
997.51
996.52
996.439
997.446
998.922
1000.38
1001.6
1002.6
1003.42
1004.11
1004.69
1005.17
1005.57
1005.9
1006.16
1006.31
1006.28
1005.77
1003.75
995.97
94.1061
478.42
834.897
936.407
957.379
969.305
977.893
985.109
992.545
996.03
994.999
994.448
994.766
996.039
997.677
999.238
1000.55
1001.63
1002.53
1003.29
1003.93
1004.47
1004.92
1005.3
1005.59
1005.77
1005.75
1005.19
1002.99
994.697
98.2902
483.121
832.207
932.182
953.906
966.364
975.41
983.129
990.996
993.123
992.518
992.39
993.086
994.611
996.403
998.069
999.471
1000.63
1001.61
1002.43
1003.14
1003.74
1004.24
1004.66
1004.99
1005.2
1005.18
1004.57
1002.18
993.376
102.43
487.507
829.42
927.931
950.408
963.419
973.026
981.953
989.243
990.255
990.068
990.347
991.401
993.163
995.102
996.872
998.364
999.609
1000.66
1001.55
1002.32
1002.97
1003.53
1003.99
1004.36
1004.6
1004.58
1003.91
1001.33
992.011
106.504
491.56
826.523
923.655
946.891
960.479
970.697
980.5
986.178
987.426
987.648
988.316
989.71
991.699
993.779
995.651
997.231
998.558
999.683
1000.65
1001.47
1002.18
1002.79
1003.3
1003.7
1003.96
1003.94
1003.21
1000.43
990.604
110.491
495.266
823.51
919.354
943.358
957.546
968.388
978.818
983.135
984.634
985.255
986.297
988.016
990.218
992.434
994.407
996.076
997.483
998.682
999.713
1000.6
1001.37
1002.02
1002.57
1003.01
1003.29
1003.27
1002.48
999.486
989.158
114.37
498.616
820.373
915.029
939.823
954.727
967.021
976.946
980.114
981.881
982.886
984.288
986.32
988.724
991.07
993.143
994.899
996.388
997.66
998.757
999.706
1000.53
1001.23
1001.83
1002.3
1002.6
1002.56
1001.7
998.5
987.676
118.121
501.601
817.11
910.684
936.293
951.979
965.401
973.698
977.117
979.164
980.541
982.29
984.622
987.217
989.691
991.862
993.705
995.273
996.619
997.782
998.791
999.664
1000.42
1001.05
1001.56
1001.88
1001.83
1000.89
997.473
986.161
121.727
504.217
813.718
906.33
932.884
950.379
963.57
970.474
974.146
976.48
978.219
980.307
982.923
985.701
988.297
990.565
992.496
994.143
995.56
996.789
997.856
998.783
999.584
1000.26
1000.8
1001.13
1001.07
1000.05
996.406
984.614
125.171
506.462
810.208
902.094
930.918
948.563
960.244
967.274
971.205
973.828
975.918
978.339
981.224
984.175
986.892
989.257
991.273
992.998
994.486
995.779
996.905
997.884
998.731
999.448
1000.02
1000.36
1000.28
999.171
995.302
983.038
128.438
508.345
806.722
899.794
928.917
946.563
956.923
964.097
968.292
971.206
973.639
976.385
979.526
982.643
985.478
987.937
990.038
991.841
993.4
994.756
995.939
996.97
997.862
998.617
999.212
999.569
999.46
998.261
994.162
981.436
131.709
513.541
805.955
897.472
926.729
942.918
953.61
960.949
965.406
968.611
971.38
974.446
977.829
981.106
984.056
986.61
988.794
990.673
992.302
993.721
994.96
996.041
996.977
997.769
998.391
998.755
998.619
997.322
992.987
979.811
138.794
518.489
804.943
892.807
922.631
939.297
950.308
957.828
962.547
966.045
969.144
972.521
976.134
979.566
982.629
985.276
987.544
989.498
991.195
992.675
993.97
995.1
996.079
996.907
997.552
997.921
997.753
996.353
991.78
978.165
145.639
523.034
800.82
888.175
918.565
935.698
947.021
954.731
959.714
963.504
966.928
970.61
974.444
978.025
981.199
983.938
986.288
988.317
990.081
991.621
992.97
994.149
995.17
996.031
996.698
997.069
996.865
995.356
990.542
976.5
149.356
523.791
796.72
883.573
914.528
932.125
943.75
951.659
956.906
960.991
964.733
968.715
972.76
976.486
979.768
982.598
985.03
987.132
988.961
990.561
991.963
993.188
994.25
995.143
995.83
996.199
995.954
994.332
989.275
974.819
153.213
524.479
792.635
879.003
910.527
928.577
940.496
948.611
954.124
958.503
962.558
966.835
971.083
974.949
978.338
981.258
983.77
985.944
987.839
989.497
990.95
992.221
993.321
994.245
994.95
995.314
995.024
993.282
987.98
973.125
157.159
525.12
788.58
874.474
906.559
925.05
937.257
945.586
951.368
956.041
960.404
964.973
969.416
973.418
976.912
979.921
982.511
984.756
986.714
988.429
989.933
991.248
992.386
993.338
994.057
994.413
994.074
992.209
986.659
971.42
161.224
525.708
784.551
869.985
902.623
921.545
934.035
942.585
948.639
953.604
958.271
963.13
967.76
971.895
975.492
978.588
981.256
983.571
985.591
987.361
988.913
990.271
991.445
992.423
993.155
993.499
993.106
991.112
985.314
969.706
165.369
526.244
780.546
865.535
898.717
918.061
930.829
939.608
945.934
951.192
956.172
961.308
966.119
970.383
974.08
977.262
980.006
982.389
984.469
986.293
987.893
989.292
990.5
991.503
992.244
992.573
992.12
989.993
983.948
967.986
169.585
526.732
776.567
861.125
894.841
914.598
927.644
936.657
943.256
948.81
954.108
959.51
964.494
968.883
972.68
975.946
978.764
981.213
983.352
985.228
986.874
988.313
989.552
990.577
991.325
991.635
991.119
988.854
982.561
966.263
173.882
527.196
772.625
856.76
891
911.158
924.48
933.731
940.606
946.458
952.083
957.739
962.89
967.401
971.293
974.641
977.532
980.045
982.241
984.167
985.857
987.334
988.604
989.648
990.4
990.686
990.102
987.696
981.155
964.538
178.299
527.654
768.726
852.444
887.194
907.745
921.339
930.832
937.985
944.14
950.101
955.999
961.311
965.938
969.924
973.352
976.312
978.887
981.138
983.112
984.845
986.358
987.655
988.717
989.469
989.728
989.072
986.52
979.733
962.815
182.863
528.133
764.883
848.184
883.427
904.359
918.223
927.963
935.397
941.861
948.167
954.295
959.76
964.5
968.576
972.08
975.108
977.742
980.045
982.066
983.839
985.385
986.709
987.785
988.534
988.762
988.029
985.327
978.296
961.097
187.625
528.676
761.114
843.987
879.706
901.007
915.137
925.126
932.846
939.628
946.287
952.633
958.244
963.091
967.252
970.829
973.921
976.611
978.965
981.029
982.84
984.418
985.764
986.852
987.595
987.788
986.973
984.119
976.846
959.384
192.659
529.34
757.446
839.87
876.04
897.694
912.087
922.33
930.343
937.463
944.47
951.021
956.768
961.716
965.958
969.603
972.755
975.499
977.899
980.005
981.85
983.457
984.824
985.921
986.654
986.808
985.906
982.896
975.386
957.681
198.09
530.213
753.921
835.854
872.444
894.434
909.084
919.584
927.901
935.395
942.728
949.468
955.341
960.381
964.697
968.406
971.614
974.406
976.85
978.993
980.872
982.504
983.889
984.991
985.711
985.821
984.828
981.66
973.915
955.989
204.066
531.416
750.598
831.975
868.942
891.244
906.142
916.904
925.539
933.442
941.073
947.986
953.971
959.094
963.477
967.243
970.501
973.337
975.82
977.998
979.905
981.56
982.96
984.064
984.766
984.828
983.74
980.411
972.438
954.31
210.939
533.167
747.581
828.289
865.573
888.152
903.286
914.313
923.285
931.626
939.525
946.587
952.669
957.863
962.303
966.118
969.419
972.295
974.812
977.02
978.952
980.627
982.038
983.14
983.82
983.829
982.643
979.151
970.954
952.647
218.994
535.742
745.011
824.88
862.39
885.198
900.551
911.853
921.224
929.976
938.105
945.29
951.449
956.698
961.183
965.038
968.375
971.283
973.828
976.062
978.015
979.705
981.123
982.219
982.873
982.825
981.535
977.879
969.464
951.002
229.624
539.838
743.191
821.914
859.507
882.467
898.009
909.596
919.422
928.528
936.84
944.114
950.325
955.611
960.127
964.009
967.372
970.304
972.873
975.125
977.095
978.796
980.216
981.302
981.925
981.814
980.416
976.595
967.971
949.376
243.245
546.138
742.47
819.58
857.038
880.04
895.737
907.671
917.954
927.335
935.769
943.089
949.32
954.618
959.146
963.041
966.419
969.366
971.948
974.214
976.194
977.9
979.317
980.387
980.974
980.795
979.286
975.299
966.472
947.769
266.627
557.346
743.922
818.456
855.364
878.206
893.987
906.251
916.874
926.433
934.917
942.23
948.444
953.727
958.245
962.138
965.516
968.467
971.056
973.327
975.311
977.017
978.426
979.474
980.018
979.767
978.141
973.988
964.968
946.183
300.626
575.319
748.256
818.831
854.631
877.111
893.006
905.514
916.305
925.908
934.345
941.584
947.73
952.962
957.443
961.311
964.674
967.616
970.199
972.467
974.447
976.145
977.539
978.559
979.055
978.724
976.976
972.656
963.452
944.607
370.463
608.389
758.737
822.498
856.009
877.514
893.04
905.466
916.214
925.717
934.01
941.11
947.146
952.294
956.716
960.542
963.877
966.799
969.368
971.626
973.596
975.281
976.654
977.641
978.083
977.667
975.797
971.313
961.936
943.059
356.195
581.595
736.431
809.539
847.843
871.674
888.514
901.76
913.061
922.985
931.627
939.021
945.3
950.647
955.232
959.194
962.642
965.661
968.312
970.641
972.673
974.411
975.831
976.856
977.326
976.926
975.047
970.514
961.003
941.811
342.993
564.958
721.025
799.153
840.757
866.413
884.323
898.243
910.006
920.29
929.243
936.912
943.424
948.965
953.712
957.809
961.372
964.489
967.225
969.627
971.722
973.516
974.983
976.048
976.548
976.165
974.281
969.701
960.06
940.558
328.045
550.645
708.428
790.114
834.253
861.431
880.283
894.82
907.023
917.668
926.931
934.86
941.591
947.315
952.214
956.44
960.112
963.323
966.14
968.613
970.771
972.619
974.133
975.237
975.767
975.399
973.509
968.882
959.111
939.304
313.942
538.419
697.72
782.068
828.236
856.718
876.414
891.521
904.133
915.098
924.638
932.817
939.757
945.658
950.705
955.058
958.839
962.143
965.042
967.586
969.806
971.709
973.27
974.414
974.974
974.623
972.727
968.053
958.152
938.044
300.462
527.093
687.951
774.562
822.491
852.148
872.629
888.28
901.289
912.565
922.375
930.792
937.934
944.004
949.196
953.672
957.559
960.955
963.935
966.55
968.832
970.79
972.4
973.583
974.174
973.839
971.938
967.217
957.187
936.779
287.876
516.474
678.824
767.434
816.943
847.687
868.912
885.086
898.482
910.063
920.129
928.776
936.113
942.348
947.681
952.278
956.27
959.758
962.818
965.504
967.849
969.863
971.52
972.744
973.365
973.048
971.141
966.374
956.214
935.507
276.178
506.359
670.122
760.559
811.53
843.3
865.238
881.922
895.699
907.58
917.897
926.767
934.292
940.689
946.16
950.877
954.973
958.553
961.693
964.45
966.858
968.927
970.632
971.897
972.549
972.25
970.338
965.524
955.235
934.23
265.354
496.67
661.739
753.873
806.218
838.968
861.596
878.78
892.932
905.109
915.675
924.761
932.472
939.026
944.634
949.469
953.669
957.339
960.56
963.388
965.858
967.983
969.737
971.043
971.727
971.446
969.529
964.67
954.249
932.947
255.354
487.35
653.608
747.332
800.983
834.678
857.979
875.653
890.176
902.647
913.459
922.758
930.649
937.36
943.102
948.054
952.357
956.117
959.418
962.317
964.851
967.032
968.835
970.182
970.899
970.635
968.716
963.81
953.258
931.659
246.119
478.367
645.689
740.91
795.813
830.423
854.382
872.538
887.428
900.192
911.248
920.755
928.825
935.688
941.564
946.633
951.037
954.888
958.269
961.239
963.837
966.074
967.927
969.316
970.064
969.82
967.897
962.945
952.26
930.365
237.586
469.698
637.957
734.59
790.696
826.198
850.802
869.434
884.687
897.742
909.041
918.753
926.998
934.013
940.02
945.204
949.71
953.652
957.112
960.154
962.816
965.11
967.012
968.443
969.224
969
967.074
962.074
951.256
929.066
229.691
461.324
630.393
728.361
785.627
821.999
847.237
866.339
881.955
895.298
906.836
916.75
925.168
932.332
938.471
943.769
948.377
952.408
955.949
959.063
961.788
964.139
966.091
967.564
968.38
968.176
966.246
961.198
950.245
927.762
222.373
453.233
622.987
722.215
780.602
817.823
843.691
863.258
879.231
892.86
904.633
914.746
923.335
930.648
936.916
942.329
947.038
951.158
954.779
957.964
960.754
963.161
965.164
966.682
967.531
967.347
965.412
960.316
949.228
926.453
215.574
445.413
615.729
716.145
775.616
813.678
840.164
860.19
876.516
890.426
902.431
912.741
921.5
928.959
935.355
940.882
945.691
949.902
953.603
956.859
959.713
962.178
964.233
965.794
966.678
966.513
964.574
959.429
948.205
925.138
209.24
437.853
608.613
710.148
770.675
809.561
836.655
857.134
873.808
887.998
900.232
910.736
919.661
927.266
933.79
939.43
944.339
948.639
952.42
955.748
958.666
961.19
963.296
964.902
965.819
965.674
963.73
958.535
947.175
923.819
203.321
430.543
601.634
704.221
765.776
805.469
833.162
854.091
871.109
885.572
898.032
908.728
917.818
925.568
932.219
937.971
942.98
947.369
951.23
954.631
957.615
960.197
962.355
964.004
964.956
964.83
962.881
957.636
946.14
922.495
197.773
423.476
594.788
698.362
760.917
801.4
829.687
851.06
868.416
883.149
895.833
906.718
915.973
923.865
930.643
936.507
941.616
946.094
950.035
953.509
956.559
959.2
961.409
963.102
964.088
963.981
962.027
956.731
945.098
921.166
192.556
416.642
588.071
692.573
756.095
797.353
826.23
848.036
865.727
880.728
893.633
904.707
914.124
922.159
929.062
935.038
940.246
944.813
948.835
952.382
955.497
958.197
960.458
962.195
963.215
963.127
961.167
955.821
944.05
919.833
187.632
410.034
581.48
686.851
751.309
793.33
822.787
845.021
863.043
878.309
891.434
902.694
912.272
920.448
927.476
933.563
938.871
943.527
947.631
951.25
954.431
957.19
959.503
961.284
962.337
962.269
960.303
954.905
942.996
918.495
182.969
403.643
575.014
681.195
746.557
789.33
819.355
842.013
860.363
875.892
889.234
900.679
910.417
918.734
925.886
932.084
937.49
942.236
946.421
950.113
953.36
956.177
958.542
960.367
961.455
961.405
959.433
953.983
941.936
917.153
178.538
397.463
568.67
675.603
741.84
785.352
815.935
839.013
857.688
873.476
887.034
898.662
908.56
917.016
924.292
930.599
936.105
940.941
945.206
948.971
952.284
955.16
957.577
959.446
960.567
960.537
958.558
953.056
940.871
915.807
174.314
391.485
562.445
670.075
737.155
781.394
812.527
836.019
855.016
871.063
884.834
896.644
906.7
915.295
922.693
929.111
934.714
939.641
943.987
947.825
951.203
954.138
956.607
958.52
959.675
959.663
957.679
952.124
939.799
914.456
170.273
385.703
556.339
664.609
732.504
777.456
809.129
833.033
852.349
868.651
882.634
894.625
904.837
913.57
921.091
927.618
933.32
938.336
942.763
946.674
950.118
953.112
955.632
957.589
958.779
958.786
956.794
951.186
938.722
913.102
166.397
380.109
550.348
659.205
727.885
773.538
805.742
830.053
849.685
866.241
880.435
892.604
902.972
911.842
919.485
926.121
931.921
937.026
941.534
945.518
949.027
952.08
954.653
956.654
957.877
957.903
955.904
950.242
937.639
911.744
162.666
374.697
544.471
653.864
723.298
769.637
802.366
827.08
847.026
863.833
878.235
890.582
901.104
910.111
917.875
924.619
930.518
935.712
940.301
944.358
947.933
951.044
953.669
955.714
956.971
957.016
955.01
949.294
936.551
910.381
159.066
369.46
538.707
648.583
718.743
765.755
799.001
824.114
844.37
861.427
876.036
888.559
899.235
908.377
916.262
923.114
929.111
934.394
939.063
943.193
946.834
950.004
952.681
954.77
956.061
956.124
954.111
948.34
935.458
909.016
155.582
364.392
533.054
643.363
714.221
761.891
795.647
821.154
841.719
859.023
873.837
886.535
897.364
906.64
914.645
921.605
927.699
933.072
937.821
942.024
945.73
948.959
951.688
953.822
955.146
955.228
953.207
947.381
934.359
907.646
152.203
359.486
527.509
638.203
709.731
758.045
792.303
818.201
839.071
856.621
871.638
884.511
895.49
904.901
913.026
920.093
926.284
931.746
936.575
940.85
944.622
947.91
950.691
952.869
954.227
954.327
952.298
946.417
933.255
906.274
148.919
354.737
522.072
633.104
705.274
754.216
788.97
815.255
836.428
854.221
869.44
882.485
893.615
903.159
911.403
918.577
924.865
930.416
935.325
939.672
943.51
946.857
949.69
951.912
953.304
953.422
951.384
945.448
932.146
904.898
145.72
350.138
516.741
628.065
700.849
750.405
785.649
812.316
833.789
851.823
867.243
880.459
891.739
901.415
909.777
917.058
923.443
929.081
934.071
938.491
942.394
945.8
948.684
950.95
952.376
952.512
950.467
944.474
931.031
903.519
142.597
345.683
511.514
623.085
696.456
746.612
782.338
809.383
831.154
849.428
865.046
878.433
889.861
899.669
908.149
915.535
922.017
927.743
932.813
937.305
941.273
944.738
947.675
949.985
951.445
951.598
949.544
943.495
929.912
902.136
139.545
341.368
506.389
618.165
692.096
742.837
779.038
806.458
828.524
847.035
862.85
876.406
887.982
897.921
906.518
914.01
920.587
926.402
931.551
936.115
940.149
943.673
946.661
949.016
950.509
950.68
948.617
942.511
928.788
900.751
136.556
337.186
501.365
613.305
687.769
739.08
775.75
803.54
825.898
844.644
860.656
874.379
886.101
896.171
904.885
912.481
919.154
925.057
930.285
934.922
939.021
942.604
945.644
948.042
949.569
949.758
947.686
941.523
927.659
899.363
133.626
333.132
496.44
608.503
683.475
735.341
772.473
800.629
823.277
842.257
858.462
872.352
884.22
894.419
903.249
910.95
917.718
923.708
929.016
933.725
937.889
941.53
944.623
947.065
948.625
948.832
946.75
940.529
926.526
897.972
130.749
329.201
491.612
603.76
679.214
731.62
769.207
797.726
820.66
839.872
856.27
870.325
882.338
892.665
901.611
909.416
916.279
922.357
927.744
932.524
936.754
940.454
943.598
946.084
947.678
947.902
945.81
939.532
925.388
896.578
127.922
325.389
486.88
599.076
674.986
727.917
765.953
794.83
818.049
837.49
854.08
868.298
880.455
890.91
899.971
907.879
914.837
921.002
926.468
931.32
935.615
939.373
942.569
945.099
946.726
946.968
944.866
938.529
924.245
895.182
125.142
321.69
482.242
594.451
670.791
724.232
762.711
791.942
815.442
835.111
851.89
866.272
878.571
889.154
898.328
906.34
913.392
919.644
925.188
930.112
934.472
938.289
941.536
944.11
945.771
946.029
943.917
937.522
923.098
893.783
122.404
318.1
477.697
589.883
666.63
720.567
759.481
789.061
812.84
832.735
849.703
864.246
876.687
887.396
896.684
904.799
911.945
918.282
923.906
928.901
933.326
937.201
940.5
943.118
944.812
945.088
942.965
936.511
921.947
892.383
119.706
314.614
473.242
585.373
662.503
716.92
756.262
786.188
810.244
830.363
847.517
862.22
874.803
885.637
895.039
903.256
910.495
916.918
922.62
927.687
932.176
936.11
939.461
942.123
943.85
944.142
942.008
935.495
920.791
890.979
117.046
311.229
468.876
580.92
658.409
713.292
753.056
783.323
807.653
827.993
845.333
860.195
872.918
883.877
893.391
901.71
909.042
915.552
921.332
926.47
931.023
935.015
938.418
941.123
942.884
943.192
941.048
934.475
919.631
889.574
114.422
307.939
464.598
576.525
654.349
709.683
749.862
780.467
805.067
825.628
843.151
858.172
871.033
882.117
891.742
900.162
907.587
914.182
920.04
925.249
929.867
933.918
937.372
940.121
941.914
942.239
940.083
933.451
918.468
888.166
111.832
304.741
460.405
572.186
650.322
706.093
746.681
777.618
802.487
823.266
840.972
856.149
869.148
880.355
890.092
898.613
906.129
912.81
918.746
924.026
928.708
932.817
936.322
939.115
940.941
941.282
939.115
932.422
917.3
886.757
109.274
301.632
456.296
567.903
646.33
702.523
743.512
774.778
799.912
820.908
838.794
854.127
867.263
878.593
888.44
897.061
904.67
911.435
917.449
922.799
927.546
931.713
935.27
938.106
939.964
940.322
938.143
931.39
916.128
885.346
106.747
298.607
452.27
563.677
642.371
698.973
740.356
771.946
797.343
818.553
836.619
852.106
865.378
876.83
886.787
895.508
903.208
910.058
916.149
921.57
926.381
930.606
934.214
937.093
938.985
939.358
937.167
930.353
914.953
883.932
104.249
295.663
448.324
559.506
638.447
695.442
737.213
769.123
794.78
816.203
834.446
850.086
863.494
875.066
885.133
893.954
901.744
908.679
914.847
920.338
925.213
929.495
933.155
936.078
938.002
938.391
936.187
929.313
913.774
882.518
101.78
292.797
444.458
555.39
634.556
691.931
734.083
766.308
792.223
813.856
832.276
848.068
861.61
873.303
883.478
892.398
900.278
907.297
913.542
919.103
924.043
928.382
932.093
935.059
937.015
937.42
935.204
928.269
912.591
881.101
99.339
290.004
440.669
551.328
630.699
688.44
730.965
763.502
789.672
811.514
830.109
846.052
859.727
871.539
881.822
890.84
898.81
905.913
912.235
917.866
922.869
927.267
931.028
934.037
936.026
936.446
934.217
927.22
911.405
879.683
96.9246
287.283
436.956
547.321
626.877
684.969
727.861
760.705
787.127
809.176
827.944
844.037
857.844
869.774
880.165
889.281
897.341
904.528
910.925
916.626
921.693
926.148
929.961
933.013
935.033
935.469
933.227
926.168
910.215
878.264
94.5364
284.63
433.318
543.368
623.088
681.518
724.77
757.917
784.589
806.842
825.782
842.023
855.962
868.01
878.508
887.721
895.87
903.14
909.613
915.384
920.514
925.027
928.89
931.985
934.038
934.489
932.233
925.113
909.022
876.843
92.1737
282.041
429.752
539.468
619.333
678.088
721.693
755.138
782.056
804.512
823.623
840.012
854.08
866.246
876.85
886.16
894.397
901.75
908.3
914.14
919.333
923.903
927.817
930.955
933.039
933.505
931.235
924.053
907.825
875.421
89.836
279.516
426.258
535.621
615.613
674.679
718.629
752.369
779.53
802.187
821.468
838.002
852.2
864.482
875.192
884.598
892.923
900.358
906.984
912.893
918.149
922.776
926.741
929.922
932.038
932.518
930.235
922.99
906.626
873.998
87.5228
277.049
422.834
531.827
611.926
671.29
715.579
749.608
777.011
799.867
819.315
835.994
850.32
862.718
873.533
883.035
891.448
898.965
905.666
911.644
916.963
921.647
925.662
928.886
931.034
931.529
929.231
921.924
905.423
872.574
85.2337
274.64
419.477
528.085
608.273
667.922
712.542
746.857
774.498
797.552
817.166
833.988
848.442
860.954
871.873
881.47
889.971
897.57
904.346
910.393
915.775
920.516
924.581
927.847
930.027
930.536
928.223
920.854
904.217
871.148
82.9685
272.285
416.188
524.394
604.654
664.575
709.519
744.115
771.992
795.241
815.019
831.985
846.565
859.191
870.214
879.906
888.493
896.174
903.024
909.14
914.584
919.382
923.498
926.806
929.017
929.54
927.213
919.78
903.008
869.722
80.7268
269.983
412.964
520.755
601.068
661.251
706.508
741.383
769.493
792.935
812.877
829.984
844.689
857.428
868.554
878.34
887.014
894.775
901.7
907.884
913.392
918.246
922.412
925.762
928.004
928.541
926.199
918.704
901.796
868.295
78.5084
267.731
409.804
517.166
597.517
657.947
703.512
738.66
767
790.634
810.738
827.985
842.815
855.666
866.894
876.774
885.534
893.376
900.375
906.627
912.197
917.107
921.323
924.716
926.989
927.539
925.182
917.624
900.581
866.867
76.3132
265.526
406.706
513.626
593.998
654.665
700.529
735.947
764.515
788.338
808.602
825.988
840.942
853.905
865.234
875.207
884.053
891.975
899.048
905.368
911
915.966
920.232
923.667
925.971
926.535
924.162
916.54
899.364
865.438
74.1409
263.367
403.669
510.137
590.514
651.405
697.559
733.244
762.036
786.047
806.47
823.994
839.07
852.144
863.575
873.64
882.571
890.573
897.72
904.107
909.801
914.824
919.139
922.616
924.95
925.528
923.139
915.454
898.144
864.009
71.9917
261.252
400.692
506.696
587.062
648.167
694.603
730.551
759.565
783.762
804.342
822.003
837.2
850.384
861.915
872.073
881.089
889.17
896.39
902.845
908.6
913.679
918.044
921.562
923.927
924.518
922.113
914.364
896.921
862.579
69.8653
259.178
397.774
503.303
583.644
644.95
691.662
727.867
757.1
781.481
802.217
820.014
835.332
848.625
860.256
870.505
879.605
887.765
895.058
901.581
907.398
912.532
916.947
920.506
922.902
923.505
921.084
913.272
895.695
861.149
67.7618
257.145
394.912
499.958
580.259
641.756
688.734
725.194
754.643
779.206
800.097
818.028
833.466
846.867
858.597
868.937
878.121
886.36
893.726
900.315
906.193
911.383
915.847
919.448
921.874
922.49
920.052
912.176
894.467
859.718
65.6812
255.15
392.106
496.66
576.907
638.583
685.82
722.531
752.193
776.936
797.98
816.044
831.601
845.11
856.938
867.369
876.636
884.953
892.392
899.048
904.987
910.232
914.746
918.388
920.844
921.472
919.018
911.078
893.237
858.287
63.6236
253.192
389.354
493.409
573.588
635.431
682.92
719.877
749.751
774.672
795.868
814.064
829.739
843.354
855.28
865.801
875.151
883.546
891.056
897.779
903.779
909.08
913.642
917.326
919.811
920.452
917.98
909.976
892.004
856.855
61.5892
251.268
386.655
490.204
570.301
632.302
680.035
717.234
747.316
772.413
793.759
812.086
827.878
841.6
853.622
864.232
873.665
882.138
889.72
896.509
902.57
907.925
912.537
916.261
918.776
919.429
916.94
908.872
890.769
855.423
59.5781