/*--------------------------------*- C++ -*----------------------------------*\
  =========                 |
  \\      /  F ield         | OpenFOAM: The Open Source CFD Toolbox
   \\    /   O peration     | Website:  https://openfoam.org
    \\  /    A nd           | Version:  8
     \\/     M anipulation  |
\*---------------------------------------------------------------------------*/
FoamFile
{
    version     2.0;
    format      ascii;
    class       volScalarField;
    location    "1";
    object      P4;
}
// * * * * * * * * * * * * * * * * * * * * * * * * * * * * * * * * * * * * * //

dimensions      [0 0 -1 0 0 0 0];

internalField   nonuniform List<scalar> 
6300
(
0
0
0
0
0
0
0
0
0
0
0
0
0
0
0
0.54252
0.653967
0.779646
0.920308
1.07668
1.24948
1.4394
1.64709
1.8732
2.11846
2.38442
2.67822
3.04017
3.70919
6.59702
0
0
0
0
0
0
0
0
0
0
0
0
0
0
0
0.563576
0.675396
0.800982
0.941025
1.0962
1.26717
1.45459
1.65909
1.88132
2.12209
2.3832
2.67238
3.03074
3.69916
6.58305
0
0
0
0
0
0
0
0
0
0
0
0
0
0
0.479652
0.579815
0.692969
0.819791
0.960939
1.11706
1.28878
1.47671
1.68149
1.90374
2.14427
2.40493
2.69349
3.05128
3.72206
6.61056
0
0
0
0
0
0
0
0
0
0
0
0
0
0
0.495071
0.596402
0.71059
0.83827
0.979998
1.13634
1.30798
1.49554
1.6996
1.92078
2.15982
2.41856
2.70498
3.06138
3.73661
6.62459
0
0
0
0
0
0
0
0
0
0
0
0
0
0
0.509285
0.611485
0.726392
0.854625
0.996611
1.15295
1.32436
1.51144
1.71475
1.9349
2.17266
2.42991
2.71485
3.07086
3.75127
6.63831
0
0
0
0
0
0
0
0
0
0
0
0
0
0
0.523845
0.626903
0.742508
0.871257
1.01332
1.16963
1.34077
1.52731
1.72982
1.94891
2.18536
2.44115
2.72471
3.08059
3.76636
6.65106
0
0
0
0
0
0
0
0
0
0
0
0
0
0
0.538774
0.642686
0.758977
0.887974
1.0302
1.18645
1.35728
1.54325
1.74493
1.96293
2.19808
2.45241
2.73465
3.09052
3.78163
6.66283
0
0
0
0
0
0
0
0
0
0
0
0
0
0
0.554066
0.658825
0.775791
0.904935
1.04731
1.20347
1.37395
1.55933
1.76016
1.97706
2.21088
2.46373
2.74466
3.10059
3.79694
6.67367
0
0
0
0
0
0
0
0
0
0
0
0
0
0.475633
0.569742
0.675338
0.792685
0.922175
1.06467
1.22071
1.39083
1.57558
1.77552
1.99129
2.22375
2.47512
2.75472
3.11073
3.81225
6.68364
0
0
0
0
0
0
0
0
0
0
0
0
0
0.49073
0.585822
0.692249
0.8099
0.939708
1.08229
1.23818
1.4079
1.59199
1.79102
2.00562
2.2367
2.48653
2.76479
3.1209
3.82748
6.69277
0
0
0
0
0
0
0
0
0
0
0
0
0
0.50626
0.602329
0.709395
0.827452
0.957551
1.1002
1.25591
1.42519
1.60859
1.80666
2.02005
2.24969
2.49794
2.77482
3.13104
3.84262
6.70108
0
0
0
0
0
0
0
0
0
0
0
0
0
0.522244
0.619282
0.726824
0.845357
0.975717
1.11839
1.27388
1.44269
1.62535
1.82243
2.03456
2.26271
2.50932
2.78478
3.14112
3.85762
6.70856
0
0
0
0
0
0
0
0
0
0
0
0
0
0.538704
0.636702
0.744651
0.863631
0.994218
1.13689
1.29212
1.46041
1.64229
1.83831
2.04913
2.27572
2.52064
2.79464
3.15111
3.87246
6.71521
0
0
0
0
0
0
0
0
0
0
0
0
0
0.555662
0.654432
0.762892
0.882285
1.01306
1.15568
1.31061
1.47834
1.65939
1.8543
2.06375
2.28872
2.53188
2.80438
3.16099
3.88713
6.72099
0
0
0
0
0
0
0
0
0
0
0
0
0.483351
0.573139
0.672515
0.781562
0.901335
1.03227
1.1748
1.32938
1.49649
1.67665
1.87039
2.07839
2.30167
2.543
2.81396
3.17072
3.90158
6.72588
0
0
0
0
0
0
0
0
0
0
0
0
0.500295
0.591159
0.691077
0.800679
0.920794
1.05184
1.19423
1.34841
1.51485
1.69405
1.88656
2.09305
2.31456
2.55399
2.82335
3.18028
3.9158
6.72984
0
0
0
0
0
0
0
0
0
0
0
0
0.517816
0.609745
0.710136
0.820258
0.940675
1.07178
1.21399
1.36772
1.53342
1.71161
1.90281
2.1077
2.32736
2.56481
2.83255
3.18966
3.92975
6.73283
0
0
0
0
0
0
0
0
0
0
0
0
0.53594
0.628817
0.729713
0.840316
0.960991
1.09211
1.23408
1.38729
1.5522
1.7293
1.91911
2.12233
2.34005
2.57545
2.84152
3.19882
3.9434
6.73478
0
0
0
0
0
0
0
0
0
0
0
0
0.554693
0.648282
0.749826
0.860869
0.981756
1.11284
1.25451
1.40714
1.57119
1.74711
1.93546
2.13691
2.35262
2.58589
2.85024
3.20775
3.95672
6.73565
0
0
0
0
0
0
0
0
0
0
0
0.488065
0.574105
0.668341
0.770496
0.881935
1.00298
1.13398
1.27528
1.42727
1.59037
1.76505
1.95185
2.15144
2.36503
2.59609
2.85869
3.21641
3.96967
6.73538
0
0
0
0
0
0
0
0
0
0
0
0.507005
0.594204
0.689019
0.791742
0.90353
1.02469
1.15553
1.2964
1.44767
1.60975
1.7831
1.96825
2.16589
2.37728
2.60604
2.86684
3.22478
3.9822
6.73388
0
0
0
0
0
0
0
0
0
0
0
0.526676
0.615022
0.71034
0.813587
0.925673
1.04688
1.1775
1.31788
1.46835
1.62933
1.80125
1.98466
2.18025
2.38932
2.61572
2.87467
3.23283
3.99428
6.7311
0
0
0
0
0
0
0
0
0
0
0
0.547113
0.63659
0.732329
0.836052
0.94838
1.06957
1.19991
1.33971
1.48931
1.64909
1.81949
2.00106
2.19449
2.40116
2.62508
2.88216
3.24052
4.00585
6.72696
0
0
0
0
0
0
0
0
0
0
0.48601
0.568352
0.658944
0.755012
0.85916
0.97167
1.09278
1.22277
1.36191
1.51053
1.66903
1.83781
2.01743
2.2086
2.41274
2.63412
2.88926
3.24782
4.01686
6.72135
0
0
0
0
0
0
0
0
0
0
0.506847
0.590432
0.681822
0.778417
0.882932
0.995562
1.11653
1.24607
1.38447
1.53204
1.68914
1.8562
2.03376
2.22255
2.42407
2.64281
2.89595
3.2547
4.02726
6.71421
0
0
0
0
0
0
0
0
0
0
0.52858
0.613394
0.705438
0.802573
0.907394
1.02007
1.14081
1.26983
1.4074
1.55381
1.70942
1.87465
2.05002
2.23632
2.43509
2.6511
2.90221
3.26111
4.03698
6.70542
0
0
0
0
0
0
0
0
0
0
0.551256
0.637281
0.729892
0.827508
0.93257
1.04523
1.16565
1.29407
1.4307
1.57585
1.72986
1.89314
2.06621
2.24988
2.4458
2.65898
2.90799
3.26701
4.04597
6.69489
0
0
0
0
0
0
0
0
0
0.495511
0.574922
0.662139
0.755219
0.853253
0.958483
1.07104
1.19107
1.31878
1.45438
1.59816
1.75045
1.91165
2.08229
2.26321
2.45615
2.6664
2.91326
3.27236
4.05414
6.68251
0
0
0
0
0
0
0
0
0
0.518918
0.599632
0.688015
0.781458
0.87984
0.985161
1.09753
1.21707
1.34397
1.47844
1.62073
1.77117
1.93017
2.09825
2.27629
2.46613
2.67335
2.91799
3.2771
4.06143
6.66816
0
0
0
0
0
0
0
0
0
0.543443
0.62544
0.714962
0.808646
0.907301
1.01263
1.12471
1.24367
1.36965
1.50287
1.64355
1.79202
1.94867
2.11406
2.28907
2.47568
2.67977
2.92212
3.28119
4.06777
6.65173
0
0
0
0
0
0
0
0
0.493899
0.56915
0.652406
0.743034
0.836825
0.93567
1.04091
1.15262
1.27088
1.39583
1.52767
1.66661
1.81297
1.96715
2.12969
2.30154
2.48479
2.68562
2.92562
3.28456
4.07305
6.63309
0
0
0
0
0
0
0
0
0.519534
0.596105
0.680593
0.772288
0.866036
0.964981
1.07004
1.18126
1.29871
1.42251
1.55284
1.68991
1.83402
1.98557
2.14512
2.31366
2.4934
2.69088
2.92845
3.28716
4.0772
6.6121
0
0
0
0
0
0
0
0
0.546518
0.624383
0.710068
0.802787
0.896323
0.99527
1.10004
1.21066
1.32717
1.4497
1.57838
1.71342
1.85514
2.0039
2.16031
2.32539
2.50148
2.69549
2.93054
3.28893
4.08012
6.58862
0
0
0
0
0
0
0
0.504835
0.574934
0.65406
0.740902
0.834505
0.927731
1.02657
1.13094
1.24083
1.35628
1.47738
1.60427
1.73715
1.8763
2.02213
2.17523
2.33668
2.50899
2.69942
2.93185
3.28979
4.08171
6.56253
0
0
0
0
0
0
0
0.533569
0.604873
0.68522
0.773173
0.867022
0.960305
1.05892
1.16276
1.27179
1.38603
1.50556
1.63051
1.76106
1.8975
2.04022
2.18984
2.34751
2.51589
2.7026
2.93232
3.28968
4.08187
6.53365
0
0
0
0
0
0
0.50266
0.563969
0.636431
0.717953
0.806961
0.900874
0.994093
1.09236
1.19553
1.30355
1.41644
1.53424
1.65708
1.78513
1.91868
2.05813
2.20411
2.35783
2.52211
2.70499
2.93191
3.28853
4.08048
6.50184
0
0
0
0
0
0
0.533972
0.596149
0.669714
0.752354
0.842354
0.936119
1.02914
1.12691
1.22926
1.33612
1.44749
1.5634
1.68396
1.80935
1.93983
2.07581
2.21797
2.36757
2.52762
2.70654
2.93053
3.28624
4.07742
6.46695
0
0
0
0
0
0.518922
0.567267
0.630232
0.704834
0.788526
0.879443
0.972818
1.06549
1.16261
1.26398
1.36952
1.47919
1.59303
1.71113
1.83366
1.96089
2.09324
2.23139
2.3767
2.53236
2.70718
2.92814
3.28274
4.07259
6.42879
0
0
0
0.515551
0.524432
0.554282
0.602694
0.666353
0.741915
0.826581
0.918328
1.01103
1.10319
1.19949
1.29971
1.40373
1.51153
1.6231
1.73855
1.85804
1.98183
2.11034
2.24431
2.38516
2.53627
2.70686
2.92467
3.27795
4.06585
6.38722
0
0
0.575567
0.557627
0.563515
0.592091
0.640411
0.704655
0.781086
0.866635
0.95911
1.05082
1.14229
1.23757
1.33644
1.43876
1.54447
1.65359
1.76619
1.88244
2.00259
2.12708
2.25668
2.39289
2.53929
2.70552
2.92004
3.27178
4.05708
6.34207
0.744883
0.676093
0.626855
0.603079
0.605523
0.632545
0.680594
0.745299
0.822492
0.908816
1.0019
1.09223
1.18281
1.27688
1.37418
1.47458
1.578
1.68445
1.79399
1.90679
2.0231
2.14338
2.26841
2.39981
2.54135
2.70309
2.91418
3.26414
4.04615
6.29316
0.822259
0.741375
0.682583
0.65221
0.650708
0.675858
0.723436
0.788455
0.866283
0.953255
1.04681
1.13532
1.22478
1.3174
1.41292
1.51117
1.61208
1.71563
1.8219
1.93103
2.0433
2.15917
2.27946
2.40588
2.5424
2.69952
2.90704
3.25493
4.03293
6.24034
0.907253
0.812722
0.74317
0.705351
0.699345
0.722269
0.769145
0.834309
0.912626
1.00009
1.09395
1.18013
1.26822
1.35915
1.45263
1.54848
1.64663
1.74706
1.84983
1.95509
2.06311
2.17437
2.28973
2.411
2.54237
2.69472
2.89853
3.24407
4.01728
6.18344
1.00067
0.890748
0.809087
0.762873
0.751738
0.772039
0.81795
0.883064
0.961692
1.04948
1.14337
1.22669
1.31313
1.40209
1.49325
1.58645
1.68159
1.77865
1.87769
1.97886
2.08243
2.18889
2.29916
2.41512
2.54118
2.68866
2.88859
3.23147
3.99907
6.1223
1.10342
0.976143
0.880859
0.825189
0.808226
0.825457
0.870103
0.934937
1.01367
1.10155
1.19336
1.27501
1.35948
1.44616
1.53473
1.62499
1.71686
1.8103
1.90538
2.00223
2.10116
2.20264
2.30764
2.41814
2.53878
2.68125
2.87716
3.21704
3.97818
6.05678
1.21656
1.06969
0.959078
0.892761
0.869184
0.882838
0.925876
0.990157
1.06874
1.15647
1.24543
1.32504
1.40721
1.49129
1.57694
1.66397
1.75229
1.84186
1.93274
2.02509
2.11917
2.2155
2.31508
2.42
2.53509
2.67244
2.86417
3.2007
3.9545
5.98675
1.3413
1.17229
1.04441
0.966104
0.935029
0.944531
0.98556
1.04897
1.1271
1.21436
1.29956
1.37674
1.45622
1.53733
1.61974
1.70323
1.78771
1.87317
1.95963
2.04726
2.13633
2.22736
2.32139
2.42061
2.53006
2.66219
2.84957
3.1824
3.92791
5.91209
1.47903
1.28498
1.13763
1.0458
1.00622
1.01091
1.04947
1.11162
1.18893
1.27534
1.35567
1.42997
1.50634
1.58411
1.6629
1.74254
1.82292
1.90401
1.98585
2.06858
2.15249
2.23809
2.32647
2.4199
2.52363
2.65046
2.83334
3.16205
3.89831
5.83267
1.63143
1.40895
1.23959
1.13249
1.08326
1.08238
1.11791
1.17834
1.25437
1.33947
1.41358
1.48451
1.55732
1.63133
1.70616
1.78163
1.85763
1.93413
2.01115
2.08884
2.16746
2.24755
2.33019
2.41778
2.51575
2.63722
2.81545
3.13966
3.86564
5.74843
1.80051
1.54563
1.35129
1.22689
1.16669
1.15936
1.1912
1.24932
1.32352
1.40671
1.473
1.54001
1.60878
1.67861
1.74912
1.82012
1.8915
1.96321
2.03527
2.1078
2.18105
2.25556
2.33245
2.4142
2.5064
2.62247
2.79591
3.11518
3.82984
5.6593
1.98864
1.69665
1.47383
1.32979
1.25706
1.24224
1.26959
1.32469
1.39635
1.47413
1.53345
1.59597
1.66021
1.72544
1.79129
1.85755
1.92409
1.99086
2.05786
2.12517
2.19302
2.26196
2.33313
2.40906
2.49555
2.60622
2.77476
3.08868
3.79092
5.56524
2.19921
1.86415
1.60857
1.44201
1.35491
1.33132
1.3532
1.40437
1.47258
1.54006
1.59418
1.65161
1.71083
1.77108
1.83198
1.89328
1.95485
2.01659
2.07848
2.14057
2.20308
2.26652
2.33206
2.4023
2.48317
2.58852
2.75207
3.06023
3.74893
5.46626
2.43533
2.05016
1.75668
1.56423
1.4606
1.42674
1.44193
1.48804
1.55169
1.60586
1.65408
1.70587
1.75965
1.81461
1.87034
1.92656
1.98309
2.03981
2.09663
2.1536
2.21088
2.26898
2.32906
2.39381
2.46926
2.56944
2.728
3.03001
3.70403
5.36253
2.7053
2.25896
1.92013
1.69719
1.57415
1.52806
1.53494
1.5745
1.63216
1.66983
1.7115
1.75717
1.80517
1.85465
1.90511
1.95624
2.0078
2.05959
2.11152
2.16355
2.21584
2.26886
2.3238
2.38337
2.45373
2.54899
2.70267
2.99824
3.65648
5.25409
3.00839
2.49007
2.09827
1.84009
1.69474
1.63437
1.63118
1.66251
1.7028
1.72941
1.76417
1.80354
1.84572
1.88976
1.93509
1.9813
2.0281
2.07524
2.12256
2.16998
2.21763
2.26596
2.31616
2.37099
2.43669
2.52744
2.67647
2.96547
3.607
5.14232
3.3828
2.75898
2.29524
1.99211
1.81921
1.74116
1.72514
1.74577
1.76248
1.78093
1.80857
1.84162
1.87812
1.91698
1.9575
1.99918
2.04164
2.08457
2.12777
2.1711
2.21466
2.25889
2.30499
2.35576
2.4175
2.50442
2.64937
2.93198
3.556
5.02632
3.76858
3.03494
2.4961
2.14587
1.944
1.84685
1.81648
1.81443
1.80845
1.82007
1.84184
1.86976
1.90167
1.93634
1.97295
2.01092
2.0498
2.08924
2.12898
2.16887
2.20897
2.24973
2.29236
2.33971
2.39813
2.48182
2.62321
2.89979
3.50663
4.91483
4.43973
3.40365
2.7093
2.28387
2.04239
1.92064
1.87157
1.84646
1.8335
1.83923
1.85611
1.87988
1.90819
1.93963
1.9733
2.00852
2.0448
2.08173
2.11901
2.15648
2.19419
2.23257
2.27288
2.31803
2.37444
2.45631
2.59557
2.86726
3.45653
4.79563
4.73912
3.62812
2.88038
2.40984
2.13697
1.98957
1.89808
1.85297
1.84066
1.84719
1.8646
1.8886
1.9168
1.94782
1.98078
2.01505
2.05015
2.0857
2.12142
2.15715
2.19298
2.22935
2.26756
2.31054
2.36475
2.44429
2.58065
2.84718
3.42293
4.71809
6.73434
3.9545
2.83877
2.31048
2.03641
1.89869
1.83697
1.81496
1.8137
1.82505
1.84428
1.86851
1.89605
1.9259
1.9574
1.99003
2.0234
2.05717
2.09111
2.12511
2.15929
2.19419
2.23122
2.27349
2.32763
2.40783
2.54496
2.80906
3.36639
4.58364
6.5137
3.97767
2.87114
2.33527
2.05973
1.9193
1.8508
1.82225
1.8179
1.82771
1.84571
1.86865
1.8948
1.92318
1.95312
1.98413
2.01583
2.04793
2.08021
2.11261
2.14531
2.17891
2.21491
2.25651
2.31049
2.39108
2.52905
2.79347
3.34558
4.52733
5.27795
4.10635
3.2206
2.62968
2.27198
2.07154
1.9692
1.92508
1.91386
1.91982
1.93295
1.94891
1.96771
1.98933
2.01328
2.03905
2.06615
2.09417
2.12279
2.15184
2.18137
2.21188
2.24473
2.28297
2.33317
2.40939
2.54222
2.80097
3.34815
4.52116
5.23271
4.11629
3.29229
2.73023
2.37468
2.16539
2.0523
1.99863
1.97845
1.97164
1.97349
1.98257
1.99663
2.01424
2.03449
2.05669
2.08032
2.10496
2.13027
2.15608
2.18244
2.20985
2.23968
2.27499
2.32239
2.396
2.5266
2.78373
3.32859
4.4837
4.9984
4.07629
3.34196
2.81066
2.45756
2.23995
2.11641
2.05356
2.02746
2.02247
2.02553
2.03059
2.04072
2.05455
2.07112
2.08975
2.10991
2.13116
2.15316
2.17573
2.1989
2.22316
2.24985
2.28206
2.32641
2.39715
2.52534
2.78114
3.32627
4.47589
4.90875
4.0564
3.3672
2.85774
2.51147
2.2929
2.16527
2.09768
2.06715
2.05827
2.05755
2.06058
2.06873
2.08045
2.09478
2.11108
2.12883
2.14761
2.1671
2.18713
2.20776
2.22947
2.25364
2.28338
2.32541
2.39415
2.52103
2.77692
3.32382
4.46827
4.83084
4.03237
3.3782
2.88656
2.54712
2.3294
2.19987
2.12944
2.09597
2.08431
2.08357
2.08535
2.09208
2.10218
2.11476
2.12918
2.14496
2.1617
2.1791
2.19699
2.21546
2.235
2.25703
2.2847
2.32486
2.39211
2.51831
2.77508
3.32479
4.46643
4.78004
4.01547
3.38489
2.90577
2.57163
2.35522
2.225
2.15305
2.11777
2.10426
2.10198
2.10312
2.10894
2.11792
2.1292
2.14219
2.15641
2.17152
2.18723
2.20339
2.22009
2.23788
2.2582
2.28429
2.32308
2.38942
2.51557
2.77369
3.3264
4.46577
4.74079
4.00191
3.38899
2.91907
2.5888
2.3735
2.24302
2.17019
2.1338
2.11905
2.11566
2.11646
2.12169
2.12986
2.14013
2.15196
2.16492
2.17868
2.19299
2.2077
2.22296
2.23932
2.25828
2.28314
2.32096
2.38681
2.51303
2.77154
3.32872
4.46619
4.71082
3.99183
3.39242
2.92922
2.60149
2.38681
2.2561
2.1827
2.14561
2.13006
2.12552
2.12621
2.13108
2.13867
2.14818
2.15909
2.17104
2.18369
2.19683
2.21036
2.22443
2.23964
2.25752
2.28146
2.31863
2.38432
2.50941
2.77078
3.33211
4.4669
4.68676
3.98417
3.39566
2.9375
2.61131
2.39674
2.26568
2.1918
2.15421
2.13812
2.13259
2.13332
2.138
2.14519
2.15412
2.16432
2.17543
2.18718
2.19936
2.21191
2.22501
2.23928
2.25633
2.27958
2.31636
2.3804
2.50682
2.77104
3.33621
4.46776
4.66707
3.97841
3.39899
2.94475
2.61935
2.40443
2.2728
2.19842
2.16041
2.14329
2.13753
2.13839
2.143
2.14992
2.15843
2.16807
2.17853
2.18954
2.20094
2.21269
2.22499
2.23853
2.25492
2.27768
2.313
2.37719
2.50506
2.77204
3.34076
4.46864
4.65055
3.97406
3.40247
2.95138
2.62624
2.41061
2.27819
2.20311
2.16389
2.14636
2.14088
2.1419
2.14652
2.15329
2.1615
2.17072
2.18064
2.19107
2.20183
2.21293
2.2246
2.23754
2.25343
2.27497
2.30979
2.37463
2.50394
2.77361
3.34561
4.46952
4.63641
3.97078
3.40612
2.95765
2.63239
2.41575
2.28116
2.20482
2.16559
2.14824
2.143
2.14419
2.14888
2.15558
2.16358
2.17248
2.18201
2.19196
2.20222
2.21279
2.22395
2.23642
2.25128
2.27203
2.30708
2.37259
2.50332
2.7756
3.35066
4.47042
4.62412
3.9683
3.40989
2.96368
2.63807
2.41841
2.28281
2.20591
2.1665
2.14924
2.14418
2.14556
2.15033
2.15702
2.16489
2.17356
2.18278
2.19236
2.20222
2.21237
2.22312
2.2347
2.2487
2.26946
2.30477
2.37096
2.5031
2.77793
3.35586
4.47135
4.61327
3.96642
3.41375
2.96956
2.64219
2.421
2.28421
2.20656
2.16685
2.14958
2.14465
2.14619
2.15107
2.15778
2.16558
2.17409
2.18307
2.19238
2.20191
2.21175
2.22171
2.2325
2.24639
2.2672
2.30279
2.36967
2.5032
2.78052
3.36115
4.47231
4.60356
3.96501
3.41765
2.97532
2.64628
2.42361
2.28547
2.20693
2.16679
2.14942
2.14458
2.14625
2.15124
2.15799
2.16576
2.17417
2.18299
2.19207
2.20137
2.21057
2.21984
2.23047
2.2443
2.26519
2.30109
2.36866
2.50357
2.78332
3.36652
4.47333
4.59478
3.96393
3.42156
2.98093
2.65048
2.42625
2.28665
2.20712
2.16645
2.1489
2.14408
2.14586
2.15096
2.15777
2.16554
2.17388
2.18259
2.19152
2.20041
2.20896
2.21807
2.22859
2.2424
2.26339
2.29961
2.36786
2.50415
2.78629
3.37194
4.4744
4.58674
3.96312
3.42545
2.98593
2.65478
2.42895
2.28781
2.20718
2.1659
2.1481
2.14326
2.14512
2.15032
2.1572
2.16499
2.1733
2.18193
2.19075
2.19898
2.20738
2.21637
2.22682
2.24063
2.26175
2.2983
2.36726
2.50491
2.78941
3.37739
4.47552
4.57931
3.96249
3.42931
2.99097
2.65916
2.4317
2.28897
2.20718
2.16521
2.14711
2.1422
2.14411
2.14939
2.15634
2.16417
2.17248
2.18106
2.18947
2.19754
2.20583
2.21473
2.22514
2.23898
2.26025
2.29714
2.3668
2.50581
2.79264
3.38286
4.47668
4.57238
3.962
3.4331
2.99604
2.6636
2.43452
2.29015
2.20715
2.16443
2.14597
2.14095
2.14288
2.14824
2.15526
2.16313
2.17146
2.18002
2.18809
2.19607
2.20429
2.21313
2.22353
2.23743
2.25886
2.2961
2.36647
2.50684
2.79597
3.38834
4.47787
4.56587
3.96161
3.43682
3.0011
2.66808
2.43739
2.29138
2.20711
2.1636
2.14472
2.13956
2.14149
2.14691
2.154
2.16192
2.17027
2.17884
2.18666
2.19458
2.20275
2.21157
2.22198
2.23595
2.25755
2.29516
2.36624
2.50797
2.79938
3.3938
4.47908
4.5597
3.96129
3.44045
3.00614
2.67257
2.44032
2.29264
2.20708
2.16274
2.14341
2.13806
2.13997
2.14543
2.15259
2.16057
2.16896
2.17739
2.18518
2.19308
2.20123
2.21004
2.22047
2.23453
2.25632
2.2943
2.3661
2.5092
2.80285
3.39925
4.48031
4.55384
3.961
3.44399
3.01113
2.67708
2.44329
2.29396
2.20708
2.16186
2.14205
2.1365
2.13836
2.14386
2.15107
2.15911
2.16754
2.17589
2.18367
2.19156
2.1997
2.20853
2.21901
2.23316
2.25514
2.2935
2.36603
2.51049
2.80637
3.40467
4.48155
4.54822
3.96074
3.44743
3.01607
2.68159
2.44631
2.29532
2.20711
2.16099
2.14067
2.13488
2.13668
2.1422
2.14947
2.15756
2.16603
2.17435
2.18214
2.19002
2.19818
2.20703
2.21756
2.23183
2.25402
2.29276
2.36603
2.51185
2.80993
3.41006
4.48278
4.54281
3.96049
3.45077
3.02094
2.68609
2.44936
2.29674
2.20717
2.16013
2.13927
2.13323
2.13495
2.14047
2.14779
2.15594
2.16446
2.17276
2.18057
2.18848
2.19666
2.20555
2.21615
2.23053
2.25293
2.29207
2.36607
2.51326
2.81352
3.4154
4.484
4.53758
3.96023
3.45401
3.02573
2.69057
2.45244
2.2982
2.20728
2.1593
2.13788
2.13156
2.13318
2.13871
2.14607
2.15426
2.16283
2.17115
2.17898
2.18692
2.19513
2.20407
2.21475
2.22925
2.25188
2.29141
2.36616
2.51472
2.81713
3.42069
4.48521
4.53251
3.95996
3.45714
3.03044
2.69503
2.45555
2.29972
2.20744
2.15849
2.13649
2.12988
2.1314
2.13691
2.1443
2.15255
2.16117
2.16952
2.17738
2.18536
2.19361
2.20261
2.21336
2.228
2.25085
2.29079
2.36629
2.51621
2.82076
3.42593
4.48639
4.52758
3.95967
3.46017
3.03507
2.69946
2.45869
2.30128
2.20764
2.15772
2.13513
2.12821
2.1296
2.13509
2.14251
2.1508
2.15947
2.16786
2.17577
2.18379
2.19209
2.20115
2.21199
2.22677
2.24984
2.29019
2.36645
2.51774
2.8244
3.43111
4.48755
4.52276
3.95936
3.46309
3.0396
2.70385
2.46184
2.30288
2.20789
2.15699
2.13378
2.12654
2.12779
2.13325
2.1407
2.14904
2.15776
2.1662
2.17415
2.18222
2.19057
2.1997
2.21063
2.22555
2.24886
2.28962
2.36665
2.5193
2.82803
3.43622
4.48867
4.51805
3.95902
3.46591
3.04404
2.7082
2.465
2.30453
2.20818
2.15629
2.13246
2.12488
2.12599
2.13142
2.13888
2.14725
2.15603
2.16452
2.17253
2.18064
2.18906
2.19825
2.20928
2.22434
2.24789
2.28908
2.36686
2.52089
2.83168
3.44128
4.48976
4.51344
3.95865
3.46864
3.04839
2.7125
2.46818
2.30622
2.20852
2.15564
2.13117
2.12324
2.1242
2.12958
2.13705
2.14547
2.15429
2.16284
2.1709
2.17907
2.18754
2.19681
2.20795
2.22315
2.24694
2.28855
2.36711
2.52249
2.83532
3.44626
4.49081
4.50892
3.95825
3.47126
3.05265
2.71677
2.47136
2.30794
2.20891
2.15502
2.12991
2.12163
2.12241
2.12774
2.13523
2.14368
2.15254
2.16116
2.16927
2.1775
2.18603
2.19538
2.20661
2.22197
2.24601
2.28804
2.36737
2.52412
2.83895
3.45118
4.49182
4.50447
3.95781
3.4738
3.05682
2.72099
2.47454
2.3097
2.20934
2.15445
2.12868
2.12003
2.12064
2.12592
2.1334
2.14188
2.15079
2.15949
2.16765
2.17593
2.18453
2.19395
2.20529
2.2208
2.24508
2.28754
2.36765
2.52576
2.84257
3.45603
4.49279
4.50009
3.95735
3.47624
3.06089
2.72515
2.47773
2.31148
2.20982
2.15392
2.12749
2.11846
2.11889
2.12411
2.13159
2.1401
2.14905
2.15781
2.16603
2.17437
2.18303
2.19253
2.20397
2.21964
2.24417
2.28706
2.36795
2.52742
2.84618
3.46081
4.49371
4.49578
3.95685
3.47859
3.06488
2.72927
2.48091
2.3133
2.21034
2.15343
2.12633
2.11692
2.11716
2.12231
2.12978
2.13832
2.14731
2.15614
2.16441
2.17281
2.18154
2.19112
2.20267
2.21849
2.24326
2.28659
2.36827
2.52909
2.84978
3.46551
4.49459
4.49153
3.95632
3.48086
3.06877
2.73334
2.48409
2.31515
2.21089
2.15298
2.12521
2.1154
2.11545
2.12052
2.12799
2.13655
2.14557
2.15448
2.1628
2.17125
2.18005
2.18971
2.20137
2.21734
2.24237
2.28614
2.3686
2.53077
2.85336
3.47015
4.49543
4.48734
3.95576
3.48304
3.07258
2.73735
2.48726
2.31702
2.21149
2.15257
2.12412
2.11391
2.11376
2.11875
2.12621
2.13478
2.14385
2.15281
2.16119
2.16971
2.17857
2.18831
2.20007
2.2162
2.24149
2.28569
2.36894
2.53246
2.85692
3.47471
4.49621
4.4832
3.95517
3.48514
3.0763
2.74132
2.49043
2.31892
2.21213
2.1522
2.12307
2.11245
2.11209
2.117
2.12444
2.13303
2.14213
2.15117
2.1596
2.16817
2.1771
2.18692
2.19879
2.21507
2.24061
2.28526
2.3693
2.53416
2.86047
3.4792
4.49696
4.47911
3.95455
3.48717
3.07994
2.74522
2.49358
2.32084
2.2128
2.15187
2.12205
2.11102
2.11044
2.11526
2.12268
2.1313
2.14043
2.14953
2.15801
2.16664
2.17563
2.18553
2.19751
2.21395
2.23975
2.28484
2.36966
2.53587
2.864
3.48363
4.49766
4.47506
3.9539
3.48912
3.08349
2.74908
2.49672
2.32278
2.2135
2.15158
2.12106
2.10962
2.10882
2.11354
2.12094
2.12957
2.13873
2.1479
2.15643
2.16512
2.17418
2.18416
2.19624
2.21284
2.23889
2.28443
2.37005
2.53758
2.86751
3.48797
4.4983
4.47107
3.95323
3.491
3.08697
2.75289
2.49985
2.32473
2.21424
2.15133
2.12012
2.10824
2.10722
2.11185
2.11922
2.12786
2.13705
2.14628
2.15486
2.1636
2.17273
2.18278
2.19497
2.21173
2.23804
2.28403
2.37044
2.5393
2.87099
3.49226
4.49891
4.46712
3.95253
3.49281
3.09037
2.75664
2.50297
2.3267
2.21502
2.15111
2.1192
2.1069
2.10564
2.11017
2.11752
2.12616
2.13538
2.14467
2.1533
2.1621
2.17128
2.18142
2.19371
2.21064
2.2372
2.28364
2.37084
2.54102
2.87446
3.49647
4.49948
4.4632
3.9518
3.49455
3.09369
2.76034
2.50607
2.32869
2.21582
2.15093
2.11832
2.10558
2.10409
2.10851
2.11583
2.12448
2.13372
2.14307
2.15175
2.1606
2.16985
2.18007
2.19247
2.20954
2.23637
2.28325
2.37126
2.54275
2.87791
3.50061
4.5
4.45933
3.95105
3.49623
3.09693
2.76399
2.50915
2.33069
2.21665
2.15078
2.11747
2.10429
2.10256
2.10687
2.11415
2.12281
2.13208
2.14148
2.15021
2.15911
2.16843
2.17872
2.19122
2.20846
2.23554
2.28288
2.37168
2.54449
2.88133
3.50469
4.50048
4.4555
3.95028
3.49785
3.10011
2.76759
2.51222
2.3327
2.21751
2.15067
2.11665
2.10302
2.10106
2.10525
2.1125
2.12116
2.13044
2.1399
2.14868
2.15763
2.16701
2.17738
2.18999
2.20738
2.23473
2.28252
2.37212
2.54622
2.88473
3.5087
4.50091
4.45171
3.94949
3.4994
3.10321
2.77114
2.51527
2.33472
2.2184
2.15059
2.11586
2.10179
2.09957
2.10365
2.11086
2.11952
2.12883
2.13834
2.14716
2.15617
2.1656
2.17604
2.18876
2.20631
2.23392
2.28217
2.37256
2.54797
2.88811
3.51265
4.5013
4.44795
3.94867
3.5009
3.10625
2.77464
2.5183
2.33675
2.21932
2.15054
2.11511
2.10058
2.09811
2.10207
2.10923
2.11789
2.12722
2.13678
2.14565
2.15471
2.1642
2.17472
2.18754
2.20525
2.23312
2.28182
2.37302
2.54971
2.89147
3.51653
4.50166
4.44423
3.94784
3.50235
3.10922
2.77809
2.52131
2.33879
2.22026
2.15052
2.11438
2.0994
2.09667
2.10051
2.10763
2.11628
2.12563
2.13524
2.14415
2.15326
2.16281
2.1734
2.18632
2.20419
2.23232
2.28149
2.37348
2.55146
2.89481
3.52035
4.50197
4.44054
3.94699
3.50374
3.11212
2.78149
2.52431
2.34084
2.22122
2.15053
2.11369
2.09825
2.09526
2.09897
2.10603
2.11469
2.12405
2.13371
2.14266
2.15181
2.16142
2.17209
2.18512
2.20315
2.23154
2.28116
2.37396
2.55321
2.89812
3.5241
4.50224
4.43689
3.94612
3.50507
3.11491
2.78484
2.52728
2.34289
2.22221
2.15057
2.11302
2.09712
2.09386
2.09744
2.10446
2.1131
2.12248
2.13218
2.14118
2.15038
2.16005
2.17079
2.18392
2.20211
2.23076
2.28085
2.37444
2.55497
2.9014
3.5278
4.50248
4.43327
3.94523
3.50636
3.11763
2.78815
2.53023
2.34495
2.22322
2.15064
2.11238
2.09602
2.09249
2.09593
2.1029
2.11154
2.12093
2.13065
2.13971
2.14896
2.15868
2.1695
2.18272
2.20107
2.23
2.28054
2.37494
2.55672
2.90467
3.53143
4.50267
4.42968
3.94433
3.5076
3.1203
2.7914
2.53316
2.34701
2.22425
2.15074
2.11177
2.09494
2.09114
2.09444
2.10136
2.10998
2.11939
2.12913
2.13825
2.14754
2.15732
2.16821
2.18154
2.20005
2.22923
2.28024
2.37544
2.55848
2.90791
3.535
4.50283
4.42612
3.94341
3.5088
3.1229
2.79462
2.53607
2.34908
2.22529
2.15087
2.11119
2.09389
2.08981
2.09298
2.09982
2.10844
2.11786
2.12763
2.1368
2.14614
2.15597
2.16693
2.18036
2.19903
2.22848
2.27996
2.37595
2.56024
2.91113
3.53851
4.50296
4.4226
3.94248
3.50994
3.12546
2.79778
2.53896
2.35115
2.22636
2.15102
2.11064
2.09286
2.0885
2.09152
2.09831
2.10691
2.11634
2.12613
2.13536
2.14474
2.15463
2.16566
2.17919
2.19801
2.22774
2.27968
2.37647
2.562
2.91432
3.54197
4.50305
4.4191
3.94154
3.51105
3.12796
2.8009
2.54183
2.35322
2.22745
2.15119
2.11011
2.09185
2.08721
2.09009
2.09681
2.1054
2.11483
2.12465
2.13393
2.14335
2.15329
2.16439
2.17802
2.19701
2.227
2.27941
2.377
2.56376
2.9175
3.54537
4.50311
4.41563
3.94058
3.51211
3.1304
2.80397
2.54467
2.35529
2.22855
2.1514
2.10961
2.09087
2.08594
2.08867
2.09533
2.1039
2.11334
2.12318
2.13251
2.14197
2.15196
2.16313
2.17687
2.19601
2.22627
2.27915
2.37754
2.56552
2.92064
3.54872
4.50313
4.41219
3.93961
3.51313
3.1328
2.80701
2.5475
2.35736
2.22967
2.15162
2.10913
2.08991
2.0847
2.08727
2.09386
2.10241
2.11186
2.12172
2.13109
2.1406
2.15064
2.16188
2.17572
2.19502
2.22555
2.2789
2.37808
2.56728
2.92377
3.55201
4.50312
4.40879
3.93863
3.51412
3.13515
2.81
2.5503
2.35944
2.23081
2.15187
2.10868
2.08898
2.08347
2.08588
2.09241
2.10094
2.11039
2.12027
2.12969
2.13924
2.14933
2.16064
2.17458
2.19403
2.22483
2.27865
2.37864
2.56905
2.92687
3.55524
4.50308
4.40541
3.93764
3.51507
3.13744
2.81294
2.55307
2.36151
2.23196
2.15214
2.10825
2.08806
2.08226
2.08451
2.09097
2.09947
2.10893
2.11882
2.1283
2.13789
2.14803
2.1594
2.17344
2.19306
2.22413
2.27842
2.3792
2.57081
2.92995
3.55843
4.50301
4.40205
3.93664
3.51598
3.13969
2.81585
2.55583
2.36358
2.23313
2.15244
2.10785
2.08717
2.08107
2.08316
2.08954
2.09802
2.10749
2.11739
2.12691
2.13654
2.14673
2.15817
2.17231
2.19209
2.22343
2.27819
2.37977
2.57257
2.93301
3.56156
4.50291
4.39872
3.93563
3.51685
3.1419
2.81871
2.55856
2.36565
2.23431
2.15275
2.10747
2.08631
2.0799
2.08182
2.08813
2.09659
2.10605
2.11597
2.12553
2.1352
2.14544
2.15695
2.17119
2.19113
2.22274
2.27798
2.38035
2.57433
2.93604
3.56464
4.50277
4.39543
3.93461
3.51769
3.14406
2.82153
2.56127
2.36772
2.2355
2.15309
2.10711
2.08546
2.07874
2.0805
2.08673
2.09516
2.10462
2.11456
2.12417
2.13387
2.14416
2.15574
2.17007
2.19017
2.22206
2.27777
2.38094
2.5761
2.93905
3.56767
4.50261
4.39215
3.93358
3.5185
3.14617
2.82431
2.56396
2.36978
2.2367
2.15345
2.10677
2.08463
2.07761
2.0792
2.08534
2.09375
2.10321
2.11316
2.12281
2.13255
2.14289
2.15453
2.16896
2.18922
2.22139
2.27757
2.38153
2.57786
2.94204
3.57065
4.50242
4.3889
3.93254
3.51927
3.14825
2.82706
2.56662
2.37184
2.23792
2.15382
2.10646
2.08382
2.07649
2.07791
2.08397
2.09234
2.1018
2.11177
2.12146
2.13124
2.14162
2.15333
2.16786
2.18828
2.22072
2.27738
2.38213
2.57962
2.945
3.57358
4.50221
4.38568
3.9315
3.52001
3.15028
2.82977
2.56927
2.3739
2.23914
2.15421
2.10617
2.08304
2.07539
2.07664
2.08261
2.09095
2.10041
2.11039
2.12012
2.12993
2.14036
2.15213
2.16677
2.18735
2.22006
2.2772
2.38275
2.58138
2.94795
3.57646
4.50196
4.38248
3.93045
3.52073
3.15227
2.83243
2.57188
2.37595
2.24038
2.15463
2.1059
2.08228
2.07431
2.07537
2.08126
2.08957
2.09903
2.10902
2.11878
2.12863
2.13911
2.15094
2.16568
2.18642
2.21941
2.27703
2.38336
2.58314
2.95086
3.5793
4.50169
4.3793
3.92939
3.52141
3.15422
2.83506
2.57448
2.378
2.24163
2.15506
2.10565
2.08153
2.07325
2.07413
2.07993
2.0882
2.09765
2.10766
2.11746
2.12734
2.13786
2.14976
2.16459
2.1855
2.21877
2.27687
2.38399
2.5849
2.95376
3.58209
4.50139
4.37615
3.92833
3.52206
3.15613
2.83766
2.57706
2.38004
2.24288
2.15551
2.10542
2.0808
2.0722
2.0729
2.07861
2.08684
2.09629
2.1063
2.11614
2.12606
2.13663
2.14859
2.16352
2.18459
2.21813
2.27671
2.38462
2.58665
2.95663
3.58483
4.50107
4.37303
3.92726
3.52269
3.158
2.84022
2.57961
2.38208
2.24415
2.15597
2.10521
2.0801
2.07117
2.07169
2.0773
2.0855
2.09493
2.10496
2.11483
2.12478
2.13539
2.14742
2.16245
2.18368
2.21751
2.27657
2.38526
2.58841
2.95948
3.58753
4.50073
4.36992
3.92618
3.52329
3.15984
2.84274
2.58214
2.38411
2.24542
2.15646
2.10502
2.07941
2.07016
2.07048
2.076
2.08416
2.09359
2.10362
2.11353
2.12351
2.13417
2.14626
2.16139
2.18278
2.21689
2.27643
2.38591
2.59016
2.96231
3.59018
4.50035
4.36684
3.9251
3.52387
3.16164
2.84523
2.58465
2.38614
2.2467
2.15695
2.10484
2.07874
2.06917
2.0693
2.07472
2.08284
2.09225
2.1023
2.11224
2.12225
2.13295
2.1451
2.16033
2.18189
2.21628
2.2763
2.38656
2.59191
2.96512
3.5928
4.49996
4.36377
3.92401
3.52442
3.16341
2.84768
2.58714
2.38816
2.24799
2.15747
2.10469
2.07809
2.06819
2.06812
2.07345
2.08152
2.09093
2.10098
2.11095
2.121
2.13174
2.14396
2.15928
2.181
2.21568
2.27618
2.38722
2.59366
2.9679
3.59537
4.49954
4.36074
3.92293
3.52495
3.16514
2.8501
2.58961
2.39017
2.24928
2.158
2.10456
2.07746
2.06722
2.06696
2.07218
2.08022
2.08961
2.09966
2.10967
2.11975
2.13054
2.14281
2.15824
2.18012
2.21508
2.27607
2.38789
2.5954
2.97067
3.5979
4.49911
4.35772
3.92183
3.52545
3.16684
2.85249
2.59205
2.39218
2.25058
2.15854
2.10444