/*--------------------------------*- C++ -*----------------------------------*\
  =========                 |
  \\      /  F ield         | OpenFOAM: The Open Source CFD Toolbox
   \\    /   O peration     | Website:  https://openfoam.org
    \\  /    A nd           | Version:  8
     \\/     M anipulation  |
\*---------------------------------------------------------------------------*/
FoamFile
{
    version     2.0;
    format      ascii;
    class       volScalarField;
    location    "1";
    object      P5;
}
// * * * * * * * * * * * * * * * * * * * * * * * * * * * * * * * * * * * * * //

dimensions      [0 0 -1 0 0 0 0];

internalField   nonuniform List<scalar> 
6300
(
0
0
0
0
0
0
0
0
0
0
0
0
0
0
0.463409
0.565553
0.681731
0.812746
0.95938
1.12239
1.30253
1.50051
1.71702
1.95273
2.2084
2.48565
2.79193
3.16924
3.86666
6.8771
0
0
0
0
0
0
0
0
0
0
0
0
0
0
0.484547
0.587503
0.70407
0.834989
0.980977
1.14274
1.32097
1.51634
1.72952
1.96119
2.21219
2.48438
2.78584
3.15941
3.85621
6.86254
0
0
0
0
0
0
0
0
0
0
0
0
0
0.408415
0.500016
0.604431
0.722389
0.854596
1.00174
1.16448
1.34349
1.53941
1.75288
1.98456
2.23531
2.50703
2.80785
3.18082
3.88008
6.89122
0
0
0
0
0
0
0
0
0
0
0
0
0
0.423166
0.51609
0.621723
0.740758
0.873859
1.0216
1.18458
1.36351
1.55903
1.77176
2.00232
2.25151
2.52125
2.81982
3.19135
3.89525
6.90584
0
0
0
0
0
0
0
0
0
0
0
0
0
0.436943
0.530907
0.637446
0.757232
0.890909
1.03892
1.2019
1.38059
1.57561
1.78755
2.01705
2.2649
2.53308
2.83011
3.20123
3.91054
6.92014
0
0
0
0
0
0
0
0
0
0
0
0
0
0.451083
0.546085
0.653519
0.774032
0.908247
1.05634
1.21929
1.39769
1.59215
1.80326
2.03165
2.27814
2.54479
2.84039
3.21137
3.92627
6.93343
0
0
0
0
0
0
0
0
0
0
0
0
0
0.465607
0.561648
0.669972
0.7912
0.925674
1.07394
1.23682
1.4149
1.60877
1.81901
2.04627
2.2914
2.55653
2.85075
3.22173
3.94218
6.9457
0
0
0
0
0
0
0
0
0
0
0
0
0
0.480515
0.57759
0.686795
0.808727
0.943355
1.09177
1.25456
1.43229
1.62553
1.83489
2.06099
2.30474
2.56833
2.86119
3.23223
3.95815
6.957
0
0
0
0
0
0
0
0
0
0
0
0
0.409104
0.495826
0.593931
0.70401
0.826339
0.961326
1.10987
1.27253
1.44987
1.64247
1.8509
2.07583
2.31817
2.5802
2.87167
3.2428
3.9741
6.96739
0
0
0
0
0
0
0
0
0
0
0
0
0.423685
0.511565
0.610694
0.721638
0.844284
0.979604
1.12824
1.29075
1.46768
1.65958
1.86706
2.09077
2.33166
2.5921
2.88217
3.2534
3.98998
6.97691
0
0
0
0
0
0
0
0
0
0
0
0
0.43872
0.527754
0.627901
0.739512
0.862582
0.998205
1.14691
1.30923
1.4857
1.67688
1.88336
2.10582
2.3452
2.60399
2.89263
3.26397
4.00576
6.98558
0
0
0
0
0
0
0
0
0
0
0
0
0.454232
0.544417
0.645574
0.757682
0.881248
1.01714
1.16588
1.32797
1.50394
1.69436
1.8998
2.12094
2.35877
2.61586
2.90301
3.27448
4.0214
6.99338
0
0
0
0
0
0
0
0
0
0
0
0
0.470246
0.561575
0.663734
0.776266
0.900296
1.03643
1.18515
1.34697
1.52241
1.71201
1.91636
2.13613
2.37234
2.62766
2.91329
3.28489
4.03687
7.00031
0
0
0
0
0
0
0
0
0
0
0
0.40453
0.486784
0.579253
0.682217
0.795281
0.919743
1.05607
1.20475
1.36626
1.54111
1.72984
1.93303
2.15137
2.38589
2.63937
2.92344
3.29519
4.05216
7.00633
0
0
0
0
0
0
0
0
0
0
0
0.420364
0.503872
0.597472
0.701067
0.814744
0.939602
1.07609
1.22467
1.38582
1.56003
1.74783
1.9498
2.16663
2.39939
2.65097
2.93342
3.30533
4.06722
7.01143
0
0
0
0
0
0
0
0
0
0
0
0.436777
0.521536
0.616257
0.720417
0.834672
0.959887
1.09649
1.24493
1.40566
1.57917
1.76597
1.96666
2.18191
2.41283
2.66242
2.94322
3.3153
4.08204
7.01556
0
0
0
0
0
0
0
0
0
0
0
0.453796
0.5398
0.635632
0.740286
0.855082
0.980612
1.11728
1.26553
1.42578
1.59853
1.78427
1.98359
2.19718
2.42617
2.6737
2.95281
3.32508
4.09659
7.01867
0
0
0
0
0
0
0
0
0
0
0
0.471451
0.558693
0.655514
0.760693
0.875992
1.00179
1.13848
1.28647
1.44619
1.6181
1.80271
2.00059
2.21243
2.4394
2.6848
2.96216
3.33463
4.11082
7.02071
0
0
0
0
0
0
0
0
0
0
0.410559
0.489771
0.578243
0.675805
0.78166
0.897418
1.02344
1.16009
1.30777
1.46688
1.63789
1.82129
2.01763
2.22764
2.4525
2.69567
2.97125
3.34394
4.12471
7.02162
0
0
0
0
0
0
0
0
0
0
0.428236
0.508786
0.598479
0.696716
0.803207
0.919378
1.04557
1.18212
1.32942
1.48787
1.65789
1.83999
2.03471
2.24278
2.46544
2.70631
2.98006
3.35297
4.1382
7.02133
0
0
0
0
0
0
0
0
0
0
0.446647
0.52853
0.619431
0.718272
0.825356
0.94189
1.06819
1.20459
1.35144
1.50913
1.6781
1.8588
2.05181
2.25785
2.47821
2.71669
2.98856
3.36169
4.15127
7.01977
0
0
0
0
0
0
0
0
0
0
0.465826
0.549036
0.641133
0.740498
0.848129
0.964973
1.09132
1.2275
1.37383
1.53069
1.6985
1.87773
2.06892
2.27281
2.49076
2.72677
2.99672
3.37008
4.16386
7.01688
0
0
0
0
0
0
0
0
0
0.410004
0.485811
0.570341
0.663617
0.76342
0.871548
0.988644
1.11498
1.25086
1.39659
1.55253
1.7191
1.89674
2.08601
2.28766
2.5031
2.73653
3.00452
3.3781
4.17592
7.01255
0
0
0
0
0
0
0
0
0
0.429427
0.506644
0.592482
0.68692
0.787066
0.895636
1.01292
1.13918
1.27468
1.41973
1.57466
1.73989
1.91584
2.10308
2.30236
2.51518
2.74596
3.01192
3.38571
4.1874
7.00671
0
0
0
0
0
0
0
0
0
0.449743
0.528365
0.6155
0.710769
0.811465
0.920418
1.03783
1.16393
1.29897
1.44325
1.59708
1.76086
1.93501
2.1201
2.31691
2.52698
2.75501
3.0189
3.39288
4.19824
6.99926
0
0
0
0
0
0
0
0
0
0.471001
0.551021
0.639436
0.735388
0.836647
0.945918
1.06338
1.18925
1.32375
1.46715
1.61978
1.782
1.95424
2.13706
2.33126
2.53848
2.76366
3.02543
3.39956
4.20838
6.9901
0
0
0
0
0
0
0
0
0.420495
0.493252
0.57466
0.664337
0.76088
0.86264
0.972162
1.0896
1.21514
1.34901
1.49145
1.64276
1.8033
1.97351
2.15393
2.3454
2.54964
2.77187
3.03145
3.40572
4.21774
6.97912
0
0
0
0
0
0
0
0
0.44235
0.516548
0.599331
0.69025
0.787283
0.889478
0.999176
1.11651
1.24164
1.37477
1.51613
1.66601
1.82476
1.99281
2.1707
2.3593
2.56043
2.77961
3.03695
3.41129
4.22626
6.96622
0
0
0
0
0
0
0
0
0.46532
0.540949
0.62509
0.717225
0.814635
0.917194
1.02699
1.14412
1.26874
1.40103
1.5412
1.68954
1.84637
2.01211
2.18733
2.37293
2.57083
2.78685
3.04187
3.41623
4.23387
6.95126
0
0
0
0
0
0
0
0.421755
0.489469
0.566515
0.651994
0.745316
0.842978
0.945821
1.05562
1.17246
1.29647
1.4278
1.56667
1.71332
1.8681
2.0314
2.20381
2.38626
2.58079
2.79354
3.04618
3.42049
4.24047
6.93413
0
0
0
0
0
0
0
0.445775
0.514867
0.593313
0.680105
0.77458
0.872353
0.975394
1.08511
1.20155
1.32483
1.4551
1.59252
1.73737
1.88994
2.05066
2.22011
2.39926
2.59028
2.79964
3.04983
3.42401
4.24598
6.9147
0
0
0
0
0
0
0
0.471142
0.541591
0.621413
0.709488
0.805076
0.902804
1.00595
1.11547
1.23141
1.35385
1.48291
1.61876
1.76165
1.91188
2.06987
2.23619
2.41189
2.59926
2.80513
3.05277
3.42672
4.2503
6.89282
0
0
0
0
0
0
0.437139
0.497942
0.56972
0.650892
0.740214
0.83687
0.934377
1.03752
1.14675
1.26206
1.38352
1.51124
1.64539
1.78617
1.9339
2.08898
2.25203
2.42411
2.60768
2.80993
3.05496
3.42856
4.25334
6.86835
0
0
0
0
0
0
0.464373
0.526268
0.599343
0.681829
0.772358
0.869934
0.967118
1.07015
1.17895
1.29351
1.41386
1.5401
1.67238
1.8109
1.95596
2.10798
2.26758
2.43589
2.61551
2.81402
3.05632
3.42946
4.255
6.84114
0
0
0
0
0
0.443894
0.493288
0.556222
0.630553
0.714312
0.805999
0.903832
1.00108
1.10388
1.21212
1.32578
1.44488
1.56948
1.69973
1.83583
1.97806
2.12684
2.28281
2.44718
2.6227
2.81734
3.05682
3.42935
4.25516
6.81104
0
0
0
0
0.440525
0.474156
0.524001
0.587912
0.663451
0.748434
0.841221
0.939121
1.0363
1.13873
1.24628
1.35889
1.47657
1.59938
1.72743
1.86092
2.00014
2.14551
2.29768
2.45793
2.62919
2.81983
3.05638
3.42814
4.25371
6.77788
0
0
0
0.459171
0.473445
0.506457
0.556642
0.621459
0.698147
0.784295
0.878117
0.975863
1.07283
1.17475
1.28145
1.39285
1.50895
1.62978
1.75546
1.88617
2.02218
2.16394
2.31214
2.46809
2.63493
2.82144
3.05495
3.42576
4.25053
6.7415
0
0.533172
0.505423
0.496815
0.508771
0.540953
0.591351
0.656989
0.734759
0.822004
0.916781
1.01412
1.11073
1.21197
1.31765
1.42766
1.54199
1.66066
1.78378
1.91151
2.04414
2.18211
2.32613
2.47761
2.63987
2.82211
3.05246
3.42211
4.2455
6.70173
0.636116
0.58544
0.550773
0.537439
0.546698
0.577815
0.628281
0.694643
0.773413
0.861674
0.957316
1.05395
1.15003
1.25042
1.35489
1.46333
1.5757
1.69201
1.81237
1.93693
2.06597
2.19994
2.3396
2.48642
2.64395
2.82178
3.04884
3.41712
4.23847
6.65839
0.703044
0.642496
0.600004
0.581301
0.587439
0.617229
0.6676
0.734572
0.814248
0.903429
0.999829
1.09543
1.19078
1.29012
1.39318
1.49984
1.61004
1.7238
1.84118
1.96236
2.08761
2.21739
2.35248
2.49448
2.64709
2.82038
3.04401
3.41069
4.22933
6.61132
0.776507
0.704797
0.653469
0.628683
0.631231
0.6594
0.709489
0.776941
0.857411
0.9474
1.04444
1.1386
1.23302
1.33109
1.43252
1.53719
1.645
1.75597
1.87016
1.98774
2.10899
2.23438
2.36472
2.5017
2.64925
2.81786
3.03791
3.40272
4.21793
6.56034
0.857168
0.772851
0.711562
0.6799
0.678334
0.704552
0.75415
0.821929
0.903062
0.993726
1.09125
1.18352
1.27678
1.37333
1.47291
1.57533
1.68052
1.78847
1.89925
2.01302
2.13005
2.25083
2.37623
2.50802
2.65034
2.81413
3.03046
3.39312
4.20415
6.50527
0.945771
0.847227
0.774722
0.735297
0.729036
0.752934
0.801799
0.869731
0.951372
1.04255
1.14039
1.23024
1.32206
1.41685
1.5143
1.61423
1.71654
1.82124
1.92837
2.03809
2.1507
2.26668
2.38695
2.51336
2.65031
2.80913
3.02159
3.3818
4.18783
6.44596
1.04315
0.928565
0.843437
0.795261
0.783653
0.804817
0.852677
0.920556
1.00252
1.09403
1.19191
1.27877
1.36888
1.46161
1.55665
1.65381
1.75299
1.85417
1.95741
2.06287
2.17084
2.28182
2.39677
2.51765
2.64907
2.80281
3.01123
3.36866
4.16885
6.38222
1.15027
1.01759
0.918256
0.860223
0.842539
0.860502
0.907044
0.97463
1.0567
1.14832
1.24402
1.32914
1.41719
1.50756
1.59989
1.69398
1.78975
1.88716
1.98627
2.08724
2.19036
2.29615
2.40561
2.5208
2.64657
2.79508
2.99931
3.35362
4.14708
6.31393
1.26821
1.11511
0.999796
0.930663
0.906086
0.92032
0.965184
1.0322
1.11411
1.20557
1.2983
1.3813
1.46695
1.5546
1.64389
1.73462
1.82668
1.92006
2.0148
2.11106
2.20914
2.30956
2.41337
2.52274
2.64272
2.7859
2.98577
3.33659
4.12239
6.24092
1.39824
1.22207
1.08876
1.00712
0.974726
0.984631
1.0274
1.0935
1.17495
1.26592
1.35474
1.43519
1.51805
1.6026
1.6885
1.77554
1.86361
1.95269
2.04283
2.13418
2.22703
2.32193
2.41995
2.52338
2.63747
2.77522
2.97055
3.31751
4.09467
6.16309
1.54182
1.33954
1.18593
1.0902
1.04894
1.05383
1.09402
1.15881
1.23941
1.32949
1.41323
1.49068
1.57029
1.65136
1.7335
1.81652
1.90031
1.98484
2.07016
2.15641
2.24387
2.33311
2.42524
2.52264
2.63077
2.76299
2.95363
3.2963
4.06382
6.0803
1.70069
1.46877
1.29221
1.18057
1.12925
1.12834
1.16537
1.22836
1.30763
1.39633
1.4736
1.54753
1.62344
1.70059
1.7786
1.85727
1.9365
2.01624
2.09654
2.17753
2.25948
2.34297
2.42912
2.52043
2.62256
2.74919
2.93498
3.27295
4.02976
5.99249
1.87695
1.61125
1.40865
1.27898
1.21622
1.20858
1.24178
1.30236
1.37971
1.46644
1.53554
1.6054
1.67709
1.74988
1.82339
1.8974
1.9718
2.04656
2.12168
2.19729
2.27365
2.35132
2.43148
2.51669
2.61281
2.73381
2.91461
3.24744
3.99244
5.89957
2.07307
1.76868
1.5364
1.38625
1.31043
1.29498
1.3235
1.38094
1.45563
1.53672
1.59856
1.66373
1.73069
1.79869
1.86734
1.93641
2.00578
2.07539
2.14523
2.21539
2.28613
2.358
2.43218
2.51134
2.6015
2.71687
2.89256
3.21981
3.95187
5.80151
2.29257
1.9433
1.67686
1.50323
1.41244
1.38784
1.41065
1.46399
1.5351
1.60545
1.66186
1.72173
1.78347
1.84628
1.90976
1.97366
2.03784
2.10221
2.16672
2.23145
2.29661
2.36275
2.43107
2.50429
2.58859
2.69842
2.86891
3.19015
3.90809
5.69833
2.53873
2.1372
1.83126
1.63065
1.52261
1.48732
1.50315
1.55122
1.61757
1.67403
1.72431
1.7783
1.83435
1.89165
1.94974
2.00835
2.06728
2.12641
2.18565
2.24503
2.30474
2.36531
2.42795
2.49544
2.5741
2.67852
2.84381
3.15865
3.86129
5.5902
2.82015
2.35487
2.00165
1.76924
1.64098
1.59294
1.60011
1.64134
1.70145
1.74073
1.78416
1.83177
1.88181
1.93339
1.986
2.0393
2.09304
2.14703
2.20117
2.25541
2.30991
2.36519
2.42246
2.48456
2.5579
2.65721
2.81741
3.12554
3.81172
5.47715
3.13611
2.59579
2.18735
1.91821
1.76669
1.70376
1.70044
1.73309
1.77509
1.80283
1.83907
1.88011
1.92408
1.96999
2.01724
2.06542
2.11421
2.16335
2.21267
2.26211
2.31178
2.36216
2.41449
2.47165
2.54014
2.63474
2.7901
3.09137
3.76014
5.36064
3.52641
2.87612
2.39269
2.07669
1.89644
1.81508
1.79838
1.81989
1.8373
1.85654
1.88536
1.91981
1.95786
1.99837
2.0406
2.08405
2.12832
2.17308
2.2181
2.26328
2.30868
2.35479
2.40285
2.45577
2.52014
2.61074
2.76185
3.05646
3.70697
5.23972
3.92858
3.16379
2.60208
2.23697
2.02653
1.92526
1.8936
1.89146
1.88523
1.89735
1.92004
1.94914
1.98241
2.01855
2.05671
2.0963
2.13683
2.17794
2.21937
2.26095
2.30276
2.34525
2.38969
2.43904
2.49994
2.58719
2.73458
3.0229
3.6555
5.12349
4.62822
3.54815
2.82433
2.38083
2.1291
2.00218
1.95103
1.92486
1.91134
1.91732
1.93491
1.95969
1.9892
2.02198
2.05707
2.09379
2.13161
2.17011
2.20897
2.24803
2.28734
2.32735
2.36937
2.41644
2.47525
2.56059
2.70576
2.98899
3.60327
4.99923
4.94032
3.78215
3.00267
2.51215
2.22769
2.07404
1.97866
1.93164
1.91881
1.92561
1.94377
1.96878
1.99817
2.03052
2.06488
2.1006
2.13719
2.17425
2.21148
2.24874
2.28608
2.324
2.36383
2.40863
2.46514
2.54807
2.69022
2.96806
3.56826
4.9184
7.02025
4.12239
2.95929
2.40857
2.12287
1.9793
1.91495
1.89201
1.8907
1.90253
1.92258
1.94783
1.97655
2.00767
2.0405
2.07452
2.1093
2.14451
2.17989
2.21533
2.25096
2.28735
2.32595
2.37001
2.42645
2.51006
2.653
2.92832
3.50931
4.77824
6.79024
4.14654
2.99304
2.43442
2.14718
2.00079
1.92938
1.89962
1.89508
1.90531
1.92407
1.94798
1.97525
2.00483
2.03604
2.06836
2.10141
2.13487
2.16852
2.2023
2.23639
2.27142
2.30894
2.35232
2.40858
2.4926
2.63643
2.91207
3.48762
4.71954
5.50203
4.28068
3.35733
2.74133
2.36844
2.15948
2.0528
2.00681
1.99511
2.00133
2.01502
2.03165
2.05125
2.07378
2.09876
2.12562
2.15387
2.18308
2.21292
2.2432
2.27398
2.30579
2.34003
2.37989
2.43223
2.51168
2.65015
2.91989
3.49029
4.71311
5.45487
4.29104
3.43207
2.84615
2.4755
2.25732
2.13943
2.08348
2.06245
2.05535
2.05728
2.06674
2.0814
2.09976
2.12086
2.14401
2.16865
2.19433
2.22071
2.24762
2.2751
2.30367
2.33477
2.37158
2.42099
2.49773
2.63387
2.90191
3.46991
4.67405
5.21061
4.24935
3.48385
2.92998
2.56189
2.33505
2.20627
2.14074
2.11353
2.10833
2.11152
2.1168
2.12736
2.14178
2.15905
2.17847
2.19949
2.22164
2.24458
2.2681
2.29225
2.31754
2.34537
2.37894
2.42518
2.49892
2.63256
2.89921
3.46749
4.66591
5.11716
4.22861
3.51016
2.97907
2.6181
2.39024
2.2572
2.18674
2.15491
2.14566
2.14491
2.14806
2.15656
2.16878
2.18372
2.20071
2.21921
2.23878
2.25911
2.27999
2.30149
2.32412
2.34932
2.38032
2.42414
2.4958
2.62806
2.89481
3.46494
4.65797
5.03594
4.20356
3.52162
3.00911
2.65526
2.42829
2.29327
2.21985
2.18496
2.1728
2.17202
2.17389
2.1809
2.19143
2.20455
2.21958
2.23602
2.25347
2.27161
2.29027
2.30952
2.32989
2.35285
2.3817
2.42356
2.49367
2.62523
2.8929
3.46594
4.65605
4.98298
4.18595
3.52859
3.02913
2.68081
2.45522
2.31947
2.24446
2.20769
2.1936
2.19122
2.19241
2.19847
2.20784
2.2196
2.23313
2.24796
2.26371
2.28009
2.29693
2.31434
2.33289
2.35407
2.38127
2.42171
2.49086
2.62237
2.89145
3.46762
4.65537
4.94206
4.17182
3.53287
3.043
2.69871
2.47426
2.33824
2.26232
2.22439
2.20902
2.20548
2.20632
2.21177
2.22028
2.23099
2.24332
2.25684
2.27118
2.28609
2.30143
2.31733
2.33439
2.35416
2.38007
2.4195
2.48814
2.61972
2.88921
3.47004
4.65581
4.91082
4.1613
3.53645
3.05358
2.71194
2.48814
2.35189
2.27537
2.2367
2.22049
2.21576
2.21648
2.22156
2.22947
2.23938
2.25076
2.26321
2.2764
2.2901
2.3042
2.31887
2.33472
2.35336
2.37832
2.41707
2.48554
2.61594
2.88841
3.47358
4.65655
4.88574
4.15332
3.53982
3.06222
2.72218
2.4985
2.36187
2.28486
2.24566
2.2289
2.22313
2.22389
2.22877
2.23626
2.24557
2.25621
2.26779
2.28004
2.29274
2.30582
2.31947
2.33435
2.35212
2.37637
2.4147
2.48146
2.61325
2.88868
3.47785
4.65744
4.86522
4.14732
3.54329
3.06977
2.73055
2.50652
2.3693
2.29175
2.25214
2.23429
2.22828
2.22917
2.23398
2.2412
2.25007
2.26012
2.27102
2.2825
2.29439
2.30663
2.31946
2.33356
2.35065
2.37438
2.4112
2.47812
2.61141
2.88973
3.48259
4.65835
4.84799
4.14278
3.54693
3.07668
2.73773
2.51295
2.37492
2.29665
2.25576
2.23749
2.23177
2.23283
2.23765
2.24471
2.25327
2.26287
2.27322
2.28409
2.29531
2.30688
2.31904
2.33253
2.3491
2.37156
2.40786
2.47545
2.61024
2.89137
3.48765
4.65928
4.83325
4.13936
3.55073
3.08322
2.74415
2.51831
2.37801
2.29843
2.25753
2.23945
2.23398
2.23523
2.24011
2.2471
2.25544
2.26472
2.27465
2.28502
2.29572
2.30674
2.31837
2.33137
2.34686
2.36849
2.40503
2.47331
2.6096
2.89344
3.49292
4.66021
4.82044
4.13678
3.55466
3.08951
2.75007
2.52108
2.37973
2.29956
2.25848
2.24049
2.23521
2.23665
2.24163
2.2486
2.25681
2.26584
2.27545
2.28544
2.29571
2.3063
2.31751
2.32958
2.34417
2.36581
2.40262
2.47162
2.60937
2.89587
3.49833
4.66118
4.80912
4.13482
3.55868
3.09564
2.75437
2.52379
2.38119
2.30024
2.25885
2.24084
2.23571
2.2373
2.2424
2.24939
2.25752
2.26639
2.27576
2.28545
2.2954
2.30565
2.31604
2.32728
2.34177
2.36346
2.40056
2.47028
2.60948
2.89857
3.50385
4.66219
4.79901
4.13334
3.56275
3.10163
2.75863
2.5265
2.3825
2.30063
2.25879
2.24068
2.23563
2.23737
2.24257
2.24961
2.25771
2.26647
2.27567
2.28514
2.29483
2.30442
2.31409
2.32517
2.33959
2.36136
2.39879
2.46922
2.60986
2.90149
3.50945
4.66325
4.78985
4.13222
3.56682
3.10749
2.76301
2.52926
2.38373
2.30082
2.25843
2.24013
2.23511
2.23696
2.24228
2.24938
2.25748
2.26618
2.27525
2.28456
2.29382
2.30275
2.31224
2.3232
2.3376
2.35948
2.39724
2.46839
2.61047
2.90459
3.5151
4.66436
4.78147
4.13137
3.57088
3.1127
2.76749
2.53207
2.38494
2.30089
2.25785
2.2393
2.23426
2.23619
2.24161
2.24878
2.2569
2.26557
2.27456
2.28376
2.29234
2.3011
2.31047
2.32136
2.33576
2.35778
2.39588
2.46776
2.61126
2.90784
3.52078
4.66553
4.77372
4.13072
3.5749
3.11795
2.77206
2.53494
2.38615
2.30089
2.25714
2.23826
2.23315
2.23513
2.24064
2.24789
2.25605
2.26471
2.27366
2.28242
2.29083
2.29948
2.30875
2.31961
2.33404
2.35621
2.39467
2.46729
2.6122
2.91121
3.52648
4.66674
4.7665
4.13021
3.57885
3.12324
2.77668
2.53788
2.38738
2.30085
2.25633
2.23707
2.23184
2.23386
2.23944
2.24676
2.25497
2.26365
2.27258
2.28098
2.28931
2.29787
2.30709
2.31793
2.33242
2.35476
2.39359
2.46694
2.61327
2.91468
3.53219
4.66798
4.75971
4.1298
3.58273
3.12852
2.78135
2.54087
2.38866
2.30081
2.25546
2.23578
2.23039
2.23241
2.23805
2.24545
2.25371
2.26241
2.27134
2.27949
2.28776
2.29627
2.30547
2.31632
2.33088
2.3534
2.3926
2.4667
2.61445
2.91823
3.53789
4.66924
4.75329
4.12947
3.58651
3.13377
2.78604
2.54392
2.38998
2.30078
2.25456
2.23441
2.22884
2.23083
2.23652
2.24398
2.2523
2.26104
2.26983
2.27796
2.28619
2.29468
2.30387
2.31474
2.3294
2.35211
2.3917
2.46655
2.61573
2.92184
3.54357
4.67052
4.74717
4.12917
3.59021
3.13897
2.79074
2.54702
2.39135
2.30078
2.25364
2.23299
2.2272
2.22915
2.23488
2.2424
2.25078
2.25956
2.26827
2.27638
2.28461
2.29309
2.30229
2.31322
2.32797
2.35089
2.39087
2.46648
2.61707
2.92551
3.54922
4.67181
4.74131
4.1289
3.59379
3.14412
2.79544
2.55016
2.39277
2.30081
2.25273
2.23155
2.22552
2.2274
2.23315
2.24073
2.24916
2.25799
2.26666
2.27478
2.283
2.2915
2.30073
2.31171
2.32658
2.34971
2.3901
2.46648
2.61849
2.92922
3.55483
4.6731
4.73568
4.12863
3.59728
3.1492
2.80013
2.55335
2.39425
2.30088
2.25184
2.2301
2.2238
2.22559
2.23135
2.23898
2.24747
2.25635
2.26501
2.27315
2.28139
2.28992
2.29918
2.31023
2.32522
2.34858
2.38938
2.46652
2.61996
2.93297
3.5604
4.67437
4.73023
4.12837
3.60065
3.15419
2.8048
2.55656
2.39578
2.30099
2.25097
2.22864
2.22206
2.22375
2.22951
2.23718
2.24572
2.25466
2.26333
2.27149
2.27977
2.28833
2.29765
2.30878
2.3239
2.34748
2.38869
2.46662
2.62148
2.93673
3.56592
4.67563
4.72494
4.12809
3.60391
3.1591
2.80945
2.55981
2.39735
2.30116
2.25013
2.2272
2.22031
2.22189
2.22763
2.23534
2.24393
2.25292
2.26162
2.26983
2.27814
2.28674
2.29612
2.30733
2.32259
2.34641
2.38804
2.46675
2.62304
2.94051
3.57138
4.67687
4.7198
4.12778
3.60707
3.16392
2.81406
2.56307
2.39898
2.30137
2.24933
2.22577
2.21856
2.22001
2.22573
2.23347
2.24212
2.25116
2.2599
2.26815
2.2765
2.28516
2.2946
2.3059
2.32131
2.34536
2.38742
2.46692
2.62463
2.94431
3.57678
4.67807
4.71478
4.12746
3.61012
3.16865
2.81864
2.56636
2.40065
2.30162
2.24856
2.22437
2.21682
2.21813
2.22382
2.23158
2.24027
2.24937
2.25816
2.26646
2.27486
2.28357
2.29309
2.30449
2.32004
2.34434
2.38683
2.46712
2.62626
2.9481
3.58211
4.67924
4.70987
4.1271
3.61306
3.17328
2.82317
2.56965
2.40237
2.30193
2.24784
2.22299
2.2151
2.21625
2.22191
2.22969
2.23842
2.24756
2.25642
2.26476
2.27322
2.28199
2.29158
2.30308
2.31878
2.34333
2.38626
2.46735
2.62792
2.9519
3.58738
4.68038
4.70506
4.12671
3.6159
3.17782
2.82766
2.57296
2.40413
2.30229
2.24716
2.22165
2.21339
2.21438
2.21999
2.22778
2.23655
2.24575
2.25467
2.26307
2.27158
2.28042
2.29008
2.30169
2.31754
2.34234
2.38571
2.4676
2.62959
2.95569
3.59258
4.68147
4.70035
4.1263
3.61864
3.18225
2.83211
2.57628
2.40592
2.30269
2.24652
2.22034
2.2117
2.21252
2.21808
2.22588
2.23469
2.24393
2.25292
2.26137
2.26995
2.27884
2.28859
2.3003
2.31631
2.34136
2.38518
2.46788
2.63128
2.95948
3.5977
4.68253
4.69571
4.12584
3.62128
3.1866
2.83651
2.5796
2.40776
2.30314
2.24592
2.21906
2.21004
2.21068
2.21618
2.22398
2.23282
2.24211
2.25117
2.25968
2.26831
2.27728
2.2871
2.29892
2.31509
2.3404
2.38466
2.46817
2.633
2.96325
3.60276
4.68353
4.69115
4.12536
3.62382
3.19085
2.84085
2.58292
2.40962
2.30364
2.24537
2.21781
2.2084
2.20885
2.21429
2.22209
2.23096
2.24028
2.24942
2.25799
2.26668
2.27571
2.28562
2.29755
2.31388
2.33944
2.38416
2.46848
2.63472
2.96702
3.60774
4.68449
4.68665
4.12484
3.62628
3.195
2.84514
2.58624
2.41152
2.30418
2.24485
2.21661
2.20679
2.20704
2.21241
2.22021
2.2291
2.23847
2.24768
2.2563
2.26506
2.27416
2.28415
2.29618
2.31267
2.3385
2.38367
2.46881
2.63646
2.97076
3.61264
4.68541
4.68222
4.12429
3.62864
3.19906
2.84938
2.58955
2.41344
2.30476
2.24439
2.21544
2.20521
2.20526
2.21055
2.21833
2.22726
2.23667
2.24594
2.25462
2.26344
2.27261
2.28268
2.29483
2.31148
2.33757
2.3832
2.46916
2.63821
2.9745
3.61748
4.68628
4.67785
4.1237
3.63091
3.20303
2.85357
2.59286
2.4154
2.30538
2.24396
2.2143
2.20366
2.2035
2.2087
2.21648
2.22542
2.23486
2.24421
2.25295
2.26183
2.27106
2.28122
2.29348
2.31029
2.33665
2.38274
2.46951
2.63998
2.97822
3.62223
4.6871
4.67354
4.12309
3.63311
3.20691
2.8577
2.59616
2.41737
2.30604
2.24358
2.2132
2.20214
2.20176
2.20687
2.21463
2.22359
2.23308
2.2425
2.25128
2.26022
2.26953
2.27977
2.29214
2.30912
2.33574
2.38228
2.46989
2.64175
2.98191
3.62692
4.68788
4.66927
4.12244
3.63522
3.2107
2.86177
2.59945
2.41937
2.30674
2.24323
2.21214
2.20064
2.20004
2.20507
2.2128
2.22178
2.2313
2.24079
2.24963
2.25863
2.268
2.27832
2.2908
2.30795
2.33484
2.38184
2.47027
2.64353
2.98559
3.63153
4.68861
4.66506
4.12177
3.63725
3.21441
2.8658
2.60272
2.42139
2.30748
2.24293
2.21112
2.19918
2.19835
2.20328
2.21099
2.21998
2.22953
2.23909
2.24798
2.25704
2.26648
2.27689
2.28948
2.30679
2.33394
2.38142
2.47067
2.64531
2.98925
3.63606
4.68928
4.66089
4.12106
3.63921
3.21803
2.86976
2.60598
2.42343
2.30825
2.24266
2.21013
2.19775
2.19668
2.20151
2.2092
2.2182
2.22778
2.2374
2.24634
2.25546
2.26497
2.27546
2.28816
2.30563
2.33306
2.381
2.47108
2.64711
2.99288
3.64053
4.68992
4.65677
4.12033
3.6411
3.22157
2.87368
2.60923
2.42548
2.30906
2.24244
2.20917
2.19634
2.19504
2.19976
2.20742
2.21643
2.22604
2.23572
2.24472
2.25389
2.26347
2.27404
2.28685
2.30449
2.33218
2.38059
2.4715
2.6489
2.9965
3.64492
4.6905
4.65269
4.11958
3.64292
3.22504
2.87754
2.61246
2.42756
2.30989
2.24225
2.20825
2.19497
2.19342
2.19803
2.20566
2.21468
2.22431
2.23406
2.2431
2.25233
2.26197
2.27262
2.28555
2.30335
2.33131
2.38019
2.47193
2.65071
3.00009
3.64923
4.69105
4.64866
4.1188
3.64466
3.22842
2.88134
2.61568
2.42964
2.31076
2.24209
2.20736
2.19363
2.19183
2.19632
2.20391
2.21294
2.2226
2.2324
2.2415
2.25078
2.26049
2.27122
2.28425
2.30222
2.33045
2.3798
2.47237
2.65251
3.00366
3.65349
4.69155
4.64467
4.11799
3.64635
3.23173
2.88509
2.61888
2.43174
2.31166
2.24198
2.20651
2.19231
2.19026
2.19463
2.20218
2.21121
2.22089
2.23075
2.2399
2.24924
2.25901
2.26982
2.28296
2.3011
2.3296
2.37942
2.47283
2.65433
3.00721
3.65766
4.692
4.64071
4.11716
3.64797
3.23496
2.88879
2.62206
2.43384
2.31259
2.24189
2.20569
2.19102
2.18871
2.19296
2.20048
2.2095
2.21921
2.22912
2.23832
2.24771
2.25754
2.26843
2.28168
2.29998
2.32876
2.37906
2.47329
2.65614
3.01073
3.66178
4.69241
4.63679
4.11632
3.64954
3.23813
2.89244
2.62522
2.43596
2.31354
2.24184
2.20491
2.18976
2.18719
2.19132
2.19878
2.20781
2.21753
2.2275
2.23674
2.24619
2.25608
2.26705
2.28041
2.29887
2.32793
2.3787
2.47377
2.65796
3.01423
3.66582
4.69278
4.63291
4.11545
3.65104
3.24122
2.89603
2.62836
2.43809
2.31452
2.24182
2.20415
2.18853
2.18569
2.18969
2.19711
2.20613
2.21587
2.2259
2.23518
2.24467
2.25463
2.26568
2.27915
2.29777
2.3271
2.37835
2.47425
2.65979
3.01771
3.66981
4.6931
4.62907
4.11456
3.65249
3.24425
2.89958
2.63148
2.44022
2.31553
2.24183
2.20343
2.18733
2.18421
2.18808
2.19545
2.20447
2.21423
2.2243
2.23363
2.24317
2.25319
2.26431
2.27789
2.29668
2.32628
2.37801
2.47475
2.66161
3.02116
3.67372
4.69338
4.62526
4.11365
3.65388
3.24716
2.90308
2.63458
2.44236
2.31655
2.24188
2.20273
2.18615
2.18276
2.18649
2.1938
2.20282
2.21259
2.2227
2.23208
2.24168
2.25175
2.26295
2.27664
2.2956
2.32547
2.37768
2.47525
2.66344
3.02458
3.67757
4.69363
4.62148
4.11273
3.65523
3.25
2.90652
2.63766
2.44451
2.31761
2.24195
2.20207
2.185
2.18133
2.18492
2.19218
2.20118
2.21097
2.22111
2.23055
2.24019
2.25033
2.2616
2.27539
2.29452
2.32467
2.37736
2.47577
2.66527
3.02799
3.68136
4.69384
4.61774
4.11179
3.65652
3.25277
2.90991
2.64071
2.44666
2.31868
2.24205
2.20143
2.18388
2.17992
2.18337
2.19057
2.19956
2.20937
2.21953
2.22903
2.23872
2.24891
2.26026
2.27416
2.29345
2.32388
2.37705
2.47629
2.6671
3.03137
3.68508
4.694
4.61403
4.11083
3.65776
3.25549
2.91326
2.64374
2.44881
2.31977
2.24218
2.20082
2.18278
2.17853
2.18183
2.18897
2.19796
2.20777
2.21796
2.22752
2.23725
2.2475
2.25893
2.27293
2.29239
2.32309
2.37675
2.47682
2.66893
3.03472
3.68874
4.69414
4.61036
4.10986
3.65896
3.25815
2.91656
2.64675
2.45097
2.32088
2.24234
2.20025
2.18171
2.17717
2.18032
2.1874
2.19636
2.20619
2.2164
2.22601
2.2358
2.2461
2.2576
2.27171
2.29133
2.32232
2.37646
2.47736
2.67077
3.03805
3.69235
4.69423
4.60672
4.10888
3.66011
3.26076
2.91982
2.64974
2.45313
2.32202
2.24252
2.1997
2.18066
2.17583
2.17882
2.18583
2.19479
2.20462
2.21485
2.22452
2.23435
2.24471
2.25628
2.27049
2.29028
2.32155
2.37618
2.47791
2.67261
3.04136
3.6959
4.69429
4.6031
4.10788
3.66122
3.26331
2.92302
2.65271
2.45529
2.32317
2.24274
2.19917
2.17964
2.1745
2.17734
2.18429
2.19322
2.20307
2.21332
2.22304
2.23291
2.24333
2.25497
2.26929
2.28924
2.32079
2.37591
2.47848
2.67444
3.04464
3.69938
4.69432
4.59952
4.10687
3.66229
3.2658
2.92618
2.65565
2.45745
2.32434
2.24297
2.19867
2.17864
2.1732
2.17588
2.18276
2.19167
2.20152
2.21179
2.22157
2.23148
2.24195
2.25366
2.26809
2.28821
2.32004
2.37565
2.47905
2.67628
3.0479
3.70281
4.6943
4.59596
4.10585
3.66331
3.26825
2.9293
2.65857
2.45961
2.32552
2.24323
2.1982
2.17766
2.17192
2.17444
2.18124
2.19013
2.19999
2.21028
2.22011
2.23006
2.24058
2.25237
2.2669
2.28718
2.31929
2.37539
2.47962
2.67812
3.05114
3.70618
4.69426
4.59244
4.10481
3.6643
3.27065
2.93237
2.66146
2.46177
2.32672
2.24351
2.19776
2.17671
2.17066
2.17301
2.17974
2.18861
2.19847
2.20878
2.21865
2.22865
2.23922
2.25108
2.26572
2.28616
2.31856
2.37515
2.48021
2.67995
3.05435
3.7095
4.69418
4.58895
4.10377
3.66525
3.27299
2.93539
2.66434
2.46393
2.32794
2.24382
2.19734
2.17579
2.16942
2.1716
2.17825
2.1871
2.19696
2.20729
2.21721
2.22725
2.23787
2.2498
2.26454
2.28515
2.31783
2.37491
2.4808
2.68179
3.05753
3.71277
4.69408
4.58547
4.10272
3.66616
3.27529
2.93838
2.66719
2.46608
2.32917
2.24415
2.19694
2.17488
2.1682
2.17021
2.17678
2.1856
2.19546
2.20581
2.21578
2.22585
2.23653
2.24853
2.26337
2.28415
2.31711
2.37469
2.48141
2.68363
3.06069
3.71598
4.69394
4.58204
4.10166
3.66703
3.27754
2.94132
2.67001
2.46824
2.33041
2.2445
2.19657
2.174
2.167
2.16883
2.17532
2.18411
2.19398
2.20434
2.21435
2.22447
2.23519
2.24726
2.2622
2.28316
2.3164
2.37448
2.48202
2.68547
3.06383
3.71914
4.69377
4.57862
4.10058
3.66788
3.27975
2.94422
2.67281
2.47039
2.33166
2.24487
2.19622
2.17313
2.16582
2.16747
2.17388
2.18264
2.1925
2.20288
2.21293
2.22309
2.23387
2.246
2.26105
2.28217
2.3157
2.37427
2.48264
2.6873
3.06695
3.72224
4.69357
4.57524
4.0995
3.66868
3.28191
2.94708
2.67559
2.47254
2.33293
2.24526
2.19589
2.17229
2.16465
2.16613
2.17245
2.18117
2.19104
2.20143
2.21153
2.22172
2.23254
2.24475
2.2599
2.28118
2.315
2.37407
2.48327
2.68914
3.07004
3.7253
4.69335
4.57187
4.09842
3.66946
3.28402
2.94991
2.67835
2.47468
2.33421
2.24567
2.19559
2.17148
2.16351
2.1648
2.17103
2.17972
2.18958
2.19999
2.21013
2.22036
2.23123
2.2435
2.25876
2.28021
2.31432
2.37388
2.48391
2.69097
3.0731
3.7283
4.69309
4.56854
4.09732
3.6702
3.2861
2.95269
2.68107
2.47682
2.3355
2.2461
2.1953
2.17068
2.16238
2.16349
2.16963
2.17829
2.18814
2.19856
2.20874
2.219
2.22993
2.24226
2.25762
2.27925
2.31364
2.3737
2.48455
2.69281
3.07614
3.73126
4.69281
4.56523
4.09622
3.67091
3.28813
2.95543
2.68378
2.47896
2.3368
2.24655
2.19505
2.1699
2.16127
2.16219
2.16824
2.17686
2.18671
2.19714
2.20735
2.21766
2.22863
2.24103
2.25649
2.27828
2.31297
2.37354
2.4852
2.69464
3.07917
3.73417
4.6925
4.56195
4.09511
3.6716
3.29013
2.95813
2.68647
2.48109
2.33811
2.24702
2.1948
2.16914
2.16018
2.16091
2.16686
2.17544
2.18529
2.19573
2.20598
2.21632
2.22734
2.23981
2.25537
2.27733
2.31231
2.37337
2.48586
2.69647
3.08216
3.73703
4.69217
4.55868
4.09399
3.67225
3.29208
2.9608
2.68913
2.48321
2.33942
2.24751
2.19459
2.16841
2.15911
2.15964
2.16549
2.17404
2.18388
2.19432
2.20462
2.21499
2.22605
2.23859
2.25426
2.27639
2.31165
2.37322
2.48653
2.6983
3.08513
3.73984
4.69181
4.55544
4.09287
3.67288
3.29399
2.96343
2.69177
2.48533
2.34075
2.24801
2.19439
2.16769
2.15805
2.15839
2.16414
2.17265
2.18247
2.19293
2.20326
2.21367
2.22478
2.23738
2.25315
2.27545
2.31101
2.37308
2.4872
2.70013
3.08808
3.74261
4.69142
4.55223
4.09174
3.67348
3.29587
2.96602
2.69438
2.48744
2.34209
2.24853
2.19421
2.167
2.15701
2.15715
2.1628
2.17126
2.18108
2.19155
2.20191
2.21235
2.2235
2.23618
2.25205
2.27452
2.31037
2.37295
2.48789
2.70195
3.09101
3.74533
4.69101
4.54904
4.09061
3.67405
3.29771
2.96858
2.69698
2.48955
2.34343
2.24907
2.19405
2.16632
2.15599
2.15593
2.16148
2.16989
2.1797
2.19018
2.20057
2.21104
2.22224
2.23498