/*--------------------------------*- C++ -*----------------------------------*\
  =========                 |
  \\      /  F ield         | OpenFOAM: The Open Source CFD Toolbox
   \\    /   O peration     | Website:  https://openfoam.org
    \\  /    A nd           | Version:  8
     \\/     M anipulation  |
\*---------------------------------------------------------------------------*/
FoamFile
{
    version     2.0;
    format      ascii;
    class       volScalarField;
    location    "1";
    object      tb5;
}
// * * * * * * * * * * * * * * * * * * * * * * * * * * * * * * * * * * * * * //

dimensions      [0 0 0 0 0 0 0];

internalField   nonuniform List<scalar> 
6300
(
943.224
457.918
313.466
249.961
212.574
186.886
167.494
152.044
139.365
128.772
119.804
112.126
105.487
99.6925
94.5936
90.0729
86.0372
82.412
79.1367
76.1622
73.4478
70.9599
68.6705
66.5557
64.5949
62.7646
61.0163
59.1643
56.3877
49.2192
646.403
365.992
276.73
229.784
199.635
177.807
160.771
146.896
135.334
125.567
117.227
110.038
103.785
98.3015
93.4557
89.1435
85.2811
81.8012
78.6488
75.7788
73.1537
70.7425
68.5189
66.4604
64.5471
62.7557
61.0358
59.2015
56.4243
49.2811
519.4
338.86
264.311
221.982
194.03
173.55
157.445
144.249
133.194
123.81
115.765
108.808
102.74
97.4069
92.685
88.4762
84.7015
81.2969
78.2097
75.3967
72.8219
70.4552
68.2712
66.2482
64.3663
62.6026
60.9079
59.0969
56.3352
49.2715
435.16
312.741
251.625
214.197
188.528
169.365
154.147
141.597
131.033
122.03
114.287
107.57
101.698
96.5236
91.9333
87.8345
84.1527
80.8276
77.811
75.0618
72.5425
70.224
68.082
66.0961
64.2476
62.5142
60.8459
59.0525
56.2822
49.2888
379.77
290.512
239.917
206.969
183.524
165.631
151.23
139.258
129.127
120.463
112.99
106.492
100.797
95.7685
91.2986
87.2998
83.7018
80.447
77.4931
74.7979
72.3244
70.0452
67.9372
65.9808
64.1579
62.4465
60.7962
59.0118
56.2286
49.3043
340.126
271.731
229.206
200.109
178.726
162.051
148.438
137.014
127.292
118.946
111.728
105.437
99.9114
95.0237
90.6707
86.7699
83.2545
80.0698
77.1818
74.5394
72.1111
69.871
67.7967
65.8695
64.0719
62.3819
60.7482
58.9706
56.1739
49.3217
309.795
255.664
219.44
193.621
174.114
158.593
145.739
134.845
125.514
117.471
110.496
104.403
99.0411
94.2891
90.0496
86.2444
82.81
79.7022
76.8751
74.2845
71.9009
69.6993
67.6584
65.76
63.9871
62.3179
60.7002
58.9283
56.1186
49.3405
285.531
241.726
210.54
187.515
169.694
155.253
143.123
132.74
123.786
116.035
109.293
103.39
98.186
93.5653
89.4361
85.7241
82.3688
79.3392
76.5715
74.032
71.6925
69.529
67.5211
65.6513
63.9028
62.2544
60.652
58.8853
56.0636
49.3607
265.521
229.478
202.404
181.779
165.47
152.029
140.586
130.692
122.103
114.633
108.116
102.397
97.3447
92.8513
88.8293
85.2083
81.9412
78.9797
76.2705
73.7815
71.4855
69.3597
67.3846
65.5432
63.8191
62.1911
60.604
58.842
56.009
49.3824
248.65
218.595
194.933
176.39
161.438
148.919
138.123
128.699
120.46
113.262
106.962
101.42
96.5157
92.146
88.2286
84.6965
81.5178
78.6233
75.9718
73.5326
71.2798
69.1916
67.249
65.4357
63.7359
62.1282
60.556
58.7985
55.9552
49.4054
234.174
208.833
188.039
171.318
157.588
145.919
135.733
126.756
118.854
111.919
105.829
100.459
95.698
91.4487
87.6333
84.196
81.0984
78.2698
75.6752
73.2853
71.0753
69.0243
67.1141
65.3289
63.6533
62.0659
60.5086
58.7553
55.9022
49.4298
221.575
200.003
181.648
166.535
153.91
143.027
133.412
124.86
117.283
110.601
104.715
99.5128
94.8906
90.7587
87.0431
83.7047
80.6825
77.9189
75.3806
73.0395
70.8719
68.8578
66.9799
65.2228
63.5715
62.0044
60.4618
58.7123
55.8504
49.4555
210.476
191.962
175.698
162.013
150.393
140.236
131.158
123.011
115.745
109.308
103.619
98.5794
94.0928
90.0754
86.4575
83.2178
80.2699
77.5705
75.0877
72.795
70.6696
68.6924
66.8466
65.1176
63.4905
61.9437
60.4157
58.6699
55.7996
49.4828
200.596
184.593
170.138
157.729
147.026
137.541
128.967
121.205
114.238
108.038
102.54
97.6583
93.3039
89.3985
85.8846
82.735
79.8603
77.2243
74.7966
72.5518
70.4684
68.5279
66.7142
65.0132
63.4105
61.884
60.3705
58.6281
55.7501
49.5115
191.72
177.804
164.925
153.66
143.797
134.937
126.837
119.441
112.76
106.789
101.477
96.7489
92.5234
88.7276
85.3221
82.2562
79.4537
76.8802
74.507
72.3099
70.2682
68.3642
66.5827
64.9099
63.3315
61.8253
60.3263
58.5871
55.7019
49.5417
183.683
171.518
160.02
149.789
140.697
132.419
124.765
117.717
111.311
105.561
100.429
95.8505
91.7509
88.0621
84.7646
81.7811
79.0497
76.5382
74.219
72.0693
70.0692
68.2018
66.4523
64.8075
63.2538
61.768
60.2832
58.547
55.6551
49.5736
176.354
165.674
155.394
146.098
137.716
129.981
122.748
116.031
109.889
104.352
99.3956
94.9625
90.9858
87.402
84.2119
81.3094
78.6484
76.1981
73.9326
71.8298
69.8712
68.0402
66.3229
64.7065
63.1773
61.712
60.2415
58.5079
55.6098
49.6072
169.629
160.219
151.018
142.573
134.847
127.619
120.784
114.382
108.494
103.163
98.3758
94.0845
90.2279
86.752
83.6635
80.8409
78.2494
75.8598
73.6475
71.5916
69.6742
67.8798
66.1949
64.6068
63.1023
61.6575
60.201
58.47
55.5662
49.6426
163.424
155.11
146.87
139.2
132.083
125.33
118.869
112.768
107.123
101.991
97.3691
93.2161
89.4768
86.1169
83.1194
80.3756
77.8527
75.5233
73.3639
71.3547
69.4785
67.7207
66.068
64.5084
63.0287
61.6046
60.1621
58.4331
55.5243
49.6799
157.671
150.309
142.929
135.968
129.415
123.107
117.002
111.187
105.777
100.837
96.375
92.3568
88.7322
85.4874
82.5794
79.9133
77.4583
75.1885
73.0817
71.1189
69.284
67.5627
65.9424
64.4116
62.9569
61.5534
60.1247
58.3977
55.4843
49.7192
152.313
145.784
139.178
132.866
126.837
120.949
115.18
109.639
104.453
99.6996
95.3931
91.5061
87.9937
84.8631
82.0432
79.4538
77.066
74.8554
72.8008
70.8844
69.0906
67.4059
65.8182
64.3162
62.8868
61.5039
60.089
58.3637
55.4462
49.7606
147.303
141.508
135.6
129.885
124.345
118.85
113.401
108.121
103.152
98.5783
94.4228
90.6638
87.2611
84.2439
81.5107
78.9971
76.6758
74.5239
72.5213
70.6512
68.8985
67.2505
65.6956
64.2227
62.8185
61.4565
60.0551
58.3313
55.4103
49.8043
142.603
137.457
132.181
127.017
121.933
116.809
111.663
106.633
101.872
97.4723
93.4636
89.8295
86.5342
83.6296
80.9818
78.543
76.2877
74.194
72.2433
70.4193
68.7079
67.0967
65.5746
64.1309
62.7522
61.4111
60.0231
58.3007
55.3765
49.8504
138.178
133.612
128.909
124.253
119.595
114.821
109.963
105.173
100.612
96.3812
92.5152
89.003
85.8128
83.0199
80.4564
78.0915
75.9015
73.8657
71.9666
70.1887
68.5185
66.9443
65.4553
64.0411
62.6881
61.3679
59.9932
58.2718
55.3452
49.899
134.001
129.954
125.773
121.586
117.327
112.884
108.301
103.74
99.3718
95.3043
91.5771
88.1838
85.1097
82.4148
79.9343
77.6425
75.5172
73.539
71.6913
69.9593
68.3305
66.7935
65.3379
63.9532
62.6261
61.3269
59.9654
58.2449
55.3163
49.9503
130.047
126.466
122.763
119.011
115.126
110.995
106.673
102.332
98.1505
94.2411
90.6489
87.3717
84.4157
81.8141
79.4154
77.196
75.1348
73.2139
71.4174
69.7316
68.1442
66.6444
65.2222
63.8675
62.5665
61.2884
59.9399
58.2203
55.2903
50.0045
126.296
123.136
119.869
116.522
112.986
109.152
105.079
100.95
96.9472
93.1911
89.7302
86.5665
83.7275
81.2177
78.8998
76.7518
74.7543
72.8904
71.145
69.5052
67.9593
66.497
65.1087
63.7842
62.5093
61.2524
59.917
58.1979
55.2671
50.0618
122.729
119.951
117.085
114.112
110.906
107.352
103.517
99.5901
95.7612
92.1536
88.8207
85.7677
83.0449
80.6254
78.3872
76.31
74.3757
72.5684
70.8741
69.2804
67.7761
66.3515
64.9972
63.7032
62.4549
61.2192
59.8966
58.1781
55.2471
50.1224
119.332
116.9
114.402
111.778
108.881
105.593
101.985
98.2531
94.5916
91.1283
87.92
84.9753
82.3678
80.0371
77.8776
75.8705
73.999
72.2482
70.6048
69.0572
67.5948
66.208
64.888
63.6247
62.4032
61.1888
59.8789
58.161
55.2304
50.1865
116.088
113.972
111.813
109.514
106.908
103.873
100.482
96.9376
93.4379
90.1146
87.0277
84.1888
81.696
79.4529
77.3711
75.4334
73.6242
71.9296
70.337
68.8357
67.4153
66.0667
64.7812
63.5489
62.3543
61.1615
59.8643
58.1468
55.2172
50.2543
112.987
111.159
109.313
107.317
104.985
102.189
99.0068
95.6425
92.2994
89.1121
86.1434
83.4081
81.0293
78.8724
76.8674
74.9985
73.2513
71.6127
70.071
68.6159
67.2376
65.9275
64.6769
63.4759
62.3086
61.1374
59.8528
58.1358
55.2078
50.3261
110.018
108.454
106.895
105.182
103.109
100.541
97.5575
94.3669
91.1754
88.1202
85.2669
82.6329
80.3677
78.2958
76.3667
74.566
72.8804
71.2976
69.8068
68.3979
67.062
65.7906
64.5753
63.406
62.2662
61.1166
59.8446
58.1281
55.2025
50.4021
107.169
105.848
104.556
103.106
101.276
98.9259
96.1331
93.1099
90.0652
87.1384
84.3978
81.8629
79.711
77.723
75.869
74.1359
72.5115
70.9844
69.5443
68.1821
66.8888
65.6564
64.4765
63.3392
62.2273
61.0996
59.8401
58.1241
55.2016
50.4828
104.434
103.334
102.289
101.086
99.4864
97.3423
94.7324
91.8708
88.9682
86.1664
83.5358
81.1012
79.0593
77.1539
75.3742
73.7082
72.1447
70.6732
69.2839
67.9683
66.7179
65.5247
64.3808
63.2759
62.1921
61.0863
59.8394
58.1239
55.2052
50.5682
101.802
100.908
100.091
99.1188
97.736
95.7886
93.3544
90.6486
87.8839
85.2037
82.6805
80.3631
78.4124
76.5886
74.8824
73.283
71.7801
70.3641
69.0258
67.7568
66.5494
65.396
64.2884
63.2161
62.1606
61.0771
59.8427
58.1279
55.2138
50.6588
99.2688
98.5632
97.9577
97.2011
96.0233
94.2635
91.9978
89.4425
86.8115
84.2499
81.8316
79.6314
77.7703
76.0271
74.3937
72.8605
71.418
70.0572
68.7698
67.5479
66.3838
65.2703
64.1993
63.1601
62.1334
61.0722
59.8503
58.1364
55.2278
50.755
96.8258
96.2944
95.8851
95.3303
94.3464
92.7653
90.6616
88.2517
85.7506
83.3046
80.9889
78.9058
77.1331
75.4695
73.9082
72.4407
71.0583
69.7529
68.5164
67.3415
66.2211
65.1478
64.1138
63.1083
62.1104
61.0717
59.8625
58.1498
55.2473
50.8571
94.4675
94.0972
93.8699
93.5041
92.7034
91.2929
89.3448
87.0756
84.7007
82.3673
80.1522
78.1864
76.5009
74.916
73.4261
72.0239
70.7015
69.4512
68.2657
67.1381
66.0615
65.0289
64.0323
63.0606
62.0921
61.0761
59.8796
58.1682
55.2729
50.9655
92.1882
91.967
91.9088
91.7199
91.0925
89.8447
88.0464
85.9132
83.6611
81.4377
79.321
77.4733
75.8737
74.3666
72.9477
71.6103
70.3476
69.1524
68.0181
66.9379
65.9054
64.9138
63.9551
63.0175
62.0787
61.0856
59.9019
58.1921
55.305
51.0805
89.9829
89.8998
89.9986
89.9755
89.512
88.4198
86.7655
84.7641
82.6313
80.5154
78.4953
76.7666
75.2518
73.8217
72.4731
71.2003
69.9971
68.857
67.7738
66.7412
65.753
64.8027
63.8821
62.9792
62.0705
61.1005
59.9297
58.2219
55.3438
51.2028
87.8466
87.8917
88.1365
88.2688
87.9604
87.0167
85.5011
83.6274
81.6109
79.6
77.6748
76.0666
74.6354
73.2816
72.0029
70.7942
69.6504
68.5652
67.5332
66.5484
65.6049
64.6961
63.8141
62.9462
62.0677
61.121
59.9635
58.258
55.3899
51.3327
85.7747
85.939
86.3197
86.5977
86.4362
85.6343
84.2524
82.5025
80.5993
78.6914
76.8594
75.3734
74.025
72.7468
71.5373
70.3926
69.3078
68.2777
67.2968
66.3598
65.4612
64.5943
63.7511
62.9185
62.0706
61.1476
60.0033
58.3006
55.4438
51.4706
83.763
84.0384
84.5457
84.9604
84.9379
84.2717
83.0186
81.3889
79.5962
77.7893
76.049
74.6877
73.4211
72.2178
71.0771
69.9959
68.97
67.9946
67.065
66.1761
65.3223
64.4977
63.6935
62.8967
62.0797
61.1804
60.0497
58.3505
55.5058
51.6173
81.8074
82.1864
82.8118
83.3549
83.4642
82.9276
81.7988
80.2858
78.6013
76.8934
75.2454
74.0099
72.8243
71.6953
70.623
69.605
68.6377
67.7171
66.8386
65.9976
65.189
64.4066
63.6418
62.8809
62.0952
61.2199
60.103
58.4077
55.5766
51.7732
79.9037
80.38
81.1159
81.7795
82.0137
81.6013
80.5924
79.1929
77.6142
76.0038
74.489
73.3411
72.2356
71.1802
70.1757
69.2205
68.3117
67.4455
66.6181
65.8251
65.0615
64.3215
63.5964
62.8717
62.1173
61.2664
60.1635
58.4729
55.6566
51.9388
78.0482
78.616
79.4555
80.2327
80.5852
80.2917
79.3987
78.1098
76.6348
75.1205
73.7436
72.6822
71.6561
70.6736
69.7365
68.8437
67.9928
67.1809
66.4042
65.659
64.9405
64.2429
63.5575
62.8692
62.1464
61.32
60.2317
58.5464
55.7463
52.1148
76.237
76.8914
77.8284
78.7128
79.1779
78.9982
78.2173
77.0363
75.6631
74.2438
73.0106
72.0346
71.0871
70.1769
69.3065
68.4756
67.6823
66.924
66.1979
65.5001
64.8266
64.1713
63.5257
62.8738
62.1829
61.3811
60.3075
58.6286
55.8464
52.3019
74.466
75.2032
76.2326
77.2185
77.7907
77.7202
77.0479
75.9723
74.6996
73.3744
72.2918
71.4004
70.5306
69.6918
68.8875
68.1178
67.3813
66.6763
66.0001
65.3493
64.7203
64.1072
63.5012
62.8856
62.2267
61.4498
60.3916
58.72
55.9574
52.5009
72.7314
73.5485
74.6662
75.7487
76.423
76.4575
75.8905
74.9183
73.7448
72.5133
71.5898
70.7819
69.9888
69.2205
68.4813
67.7718
67.0915
66.4388
65.8118
65.2075
64.6225
64.0511
63.4844
62.9052
62.2781
61.5263
60.484
58.8209
56.0798
52.7125
71.0283
71.9238
73.1272
74.3025
75.0747
75.2104
74.7458
73.8752
72.8002
71.6624
70.9079
70.1822
69.4646
68.7657
68.0904
67.4401
66.8147
66.2132
65.6344
65.0758
64.5339
64.0037
63.4759
62.9326
62.3371
61.6106
60.5846
58.9315
56.2144
52.9377
69.3532
70.3269
71.6146
72.88
73.7465
73.9798
73.6152
72.8449
71.8682
70.8723
70.2507
69.6056
68.9617
68.3309
67.7178
67.125
66.553
66.0015
65.4696
64.9552
64.4557
63.9655
63.4758
62.9679
62.4039
61.7026
60.6936
59.0521
56.3616
53.1776
67.6976
68.7528
70.1267
71.4816
72.4401
72.7683
72.5018
71.8312
70.953
70.1601
69.624
69.0574
68.4855
67.9202
67.3674
66.8302
66.3097
65.8063
65.3195
64.848
64.389
63.9378
63.4851
63.0116
62.4783
61.802
60.8107
59.1827
56.522
53.4335
66.0627
67.2037
68.6667
70.1114
71.1596
71.5799
71.4097
70.8386
70.0599
69.4897
69.0361
68.5451
68.0421
67.5397
67.0444
66.56
66.0886
65.6309
65.1871
64.7563
64.3361
63.9221
63.5046
63.0643
62.5606
61.9088
60.9354
59.3228
56.696
53.7066
64.4181
65.6631
67.2297
68.7719
69.912
70.4242
70.3505
69.8804
69.2037
68.8726
68.498
68.0789
67.6411
67.198
66.7568
66.322
65.8964
65.4814
65.0777
64.6849
64.3011
63.9216
63.5371
63.1277
62.6517
62.0229
61.0673
59.4722
56.8838
53.9991
62.8092
64.1677
65.8439
67.4834
68.7108
69.31
69.3304
68.9616
68.5301
68.3284
68.0259
67.6725
67.2941
66.9049
66.513
66.1234
65.7395
65.3633
64.9961
64.6379
64.2869
63.9389
63.5843
63.2027
62.7516
62.1437
61.2051
59.6288
57.0837
54.3097
61.0697
62.6255
64.4764
66.2501
67.5827
68.2787
68.4017
68.1429
68.0065
67.8778
67.6419
67.3484
67.0238
66.6828
66.3344
65.9846
65.6371
65.2947
64.9588
64.63
64.3069
63.9853
63.6554
63.2966
62.8656
62.2741
61.3491
59.7914
57.295
54.6433
59.5603
61.2917
63.2742
65.1405
66.5442
67.3162
67.533
67.5224
67.6399
67.5619
67.3739
67.1242
66.8397
66.5352
66.2203
65.9013
65.5826
65.2669
64.9562
64.6511
64.3505
64.0501
63.7401
63.3994
62.984
62.405
61.4912
59.952
57.5069
54.9786
57.2631
59.6417
62.0823
64.2133
65.7837
66.6945
67.0558
67.284
67.4469
67.4151
67.2683
67.0547
66.8013
66.5241
66.2331
65.935
65.6347
65.3356
65.04
64.7486
64.4604
64.1714
63.8714
63.5386
63.1285
62.5519
61.6395
60.113
57.7242
55.3465
56.6219
58.9826
61.3134
63.4218
65.0345
66.083
66.895
67.3464
67.4818
67.4277
67.2655
67.0424
66.7842
66.506
66.2171
65.9234
65.6292
65.3376
65.0502
64.7678
64.4891
64.2097
63.9194
63.5961
63.1949
62.6271
61.7262
60.2216
57.884
55.6105
52.0072
57.6389
61.4146
64.0253
65.8427
66.9486
67.4985
67.709
67.7298
67.6272
67.4473
67.221
66.9668
66.6957
66.4149
66.1294
65.8427
65.5577
65.2761
64.9985
64.7231
64.4453
64.1537
63.825
63.4128
62.8281
61.9089
60.4046
58.1323
56.0423
53.1234
57.893
61.4002
63.9516
65.7234
66.8264
67.4413
67.7227
67.7709
67.6763
67.5007
67.2794
67.0314
66.7675
66.4944
66.217
65.9386
65.6616
65.3875
65.1163
64.8457
64.5706
64.2785
63.9453
63.523
62.9217
61.9802
60.4562
58.1963
56.2202
55.953
57.5927
59.8511
62.2228
64.2281
65.6346
66.4469
66.8037
66.8701
66.7833
66.6435
66.493
66.3246
66.1356
65.9291
65.7098
65.4819
65.249
65.0135
64.7766
64.5376
64.2919
64.0288
63.7255
63.3359
62.7712
61.8708
60.3886
58.1677
56.255
56.0199
57.5444
59.5295
61.6457
63.5058
64.8742
65.7126
66.1225
66.2605
66.3042
66.2819
66.1972
66.0705
65.9152
65.7395
65.5496
65.3498
65.1439
64.9343
64.7221
64.5064
64.2828
64.0404
63.756
63.3833
62.832
61.9389
60.4558
58.2346
56.3685
56.6636
57.7029
59.32
61.2129
62.9773
64.3446
65.2322
65.7042
65.8828
65.8827
65.8276
65.7746
65.6805
65.5573
65.4135
65.2546
65.0851
64.9083
64.7267
64.5416
64.3519
64.1537
63.936
63.6759
63.3262
62.796
61.9193
60.4442
58.2264
56.3914
56.9049
57.7756
59.2006
60.946
62.6237
63.9611
64.8589
65.3606
65.5744
65.6077
65.5855
65.5449
65.463
65.3539
65.2257
65.0836
64.9317
64.773
64.6099
64.4432
64.2721
64.0922
63.8925
63.6495
63.3158
62.7981
61.9278
60.4491
58.225
56.4168
57.1365
57.8816
59.1564
60.785
62.3925
63.7022
64.6033
65.125
65.3645
65.4237
65.3958
65.3621
65.289
65.1904
65.074
64.945
64.8069
64.6627
64.5143
64.3627
64.2067
64.0419
63.8572
63.6285
63.3072
62.7986
61.9307
60.4449
58.2123
56.4273
57.2925
57.9658
59.1365
60.6786
62.232
63.5174
64.4167
64.9499
65.2071
65.285
65.2717
65.2413
65.1735
65.0818
64.9737
64.854
64.7262
64.5928
64.4557
64.3156
64.1715
64.0183
63.8448
63.6263
63.3132
62.8091
61.939
60.4435
58.2028
56.4386
57.4205
58.0431
59.1346
60.6088
62.1203
63.3861
64.2826
64.8234
65.0926
65.1846
65.1831
65.1545
65.0903
65.0038
64.9023
64.7901
64.6705
64.546
64.418
64.2874
64.1526
64.0086
63.8437
63.6328
63.3251
62.8224
61.95
60.4534
58.1944
56.45
57.5231
58.1098
59.1396
60.5599
62.0389
63.29
64.1843
64.7303
65.0083
65.1104
65.1222
65.0942
65.0323
64.9495
64.853
64.7468
64.6339
64.5166
64.3963
64.2732
64.146
64.0093
63.8511
63.6454
63.3409
62.8374
61.9743
60.4568
58.184
56.4636
57.6096
58.1689
59.1485
60.5242
61.9775
63.2183
64.1117
64.6619
64.9465
65.0563
65.0801
65.0519
64.9913
64.9113
64.8186
64.7172
64.6098
64.4984
64.3843
64.2677
64.1467
64.0159
63.8626
63.6609
63.3578
62.8682
61.9923
60.4555
58.1724
56.4787
57.6836
58.2212
59.159
60.4966
61.9292
63.163
64.0571
64.6115
64.9016
65.0241
65.0519
65.023
64.9629
64.8848
64.7951
64.6975
64.5946
64.4881
64.3791
64.2676
64.1518
64.0256
63.8763
63.6771
63.3866
62.8942
62.0054
60.4511
58.1606
56.4952
57.7481
58.2681
59.1699
60.4742
61.8897
63.1192
64.0155
64.5755
64.8792
65.0078
65.0338
65.004
64.944
64.867
64.7794
64.6848
64.5856
64.4831
64.3784
64.2712
64.1594
64.0369
63.8907
63.702
63.4149
62.9156
62.0147
60.4444
58.1489
56.5124
57.8052
58.3105
59.1807
60.4553
61.856
63.0833
63.9952
64.5668
64.8711
64.9989
65.0236
64.9928
64.9324
64.856
64.7699
64.6776
64.581
64.4818
64.3805
64.2769
64.1685
64.0491
63.9118
63.7298
63.4395
62.9335
62.0211
60.436
58.1373
56.5298
57.8563
58.3492
59.1912
60.4387
61.8264
63.0697
63.9861
64.5616
64.8678
64.9955
65.0193
64.9873
64.9265
64.8502
64.765
64.6744
64.5801
64.4835
64.385
64.2843
64.1786
64.0671
63.9373
63.7541
63.4607
62.9484
62.0252
60.4263
58.1259
56.5473
57.9024
58.3848
59.2013
60.4236
61.8101
63.0562
63.9784
64.559
64.8678
64.9963
65.0194
64.9865
64.925
64.8486
64.7641
64.6746
64.582
64.4874
64.3913
64.2928
64.1941
64.0897
63.96
63.7758
63.4793
62.9608
62.0273
60.4156
58.1146
56.5644
57.9444
58.4178
59.2111
60.4098
61.7943
63.0423
63.9711
64.5578
64.8704
65.0002
65.0232
64.9893
64.9271
64.8504
64.7662
64.6775
64.5861
64.4932
64.3988
64.3061
64.2138
64.1103
63.9808
63.7953
63.4957
62.9714
62.0279
60.404
58.1034
56.581
57.983
58.4486
59.2205
60.3973
61.7778
63.0281
63.964
64.5577
64.8748
65.0065
65.0295
64.9952
64.9322
64.8552
64.771
64.6827
64.5923
64.5005
64.4099
64.3233
64.2322
64.1293
63.9997
63.8129
63.5104
62.9803
62.0271
60.3917
58.0923
56.597
58.0187
58.4774
59.2296
60.3893
61.7608
63.0135
63.957
64.5583
64.8805
65.0146
65.038
65.0033
64.9396
64.8621
64.7778
64.6899
64.6001
64.5091
64.4251
64.3398
64.2495
64.1471
64.0172
63.8292
63.5237
62.9879
62.0252
60.3788
58.0812
56.6123
58.0519
58.5047
59.2385
60.381
61.7433
62.9984
63.9498
64.5592
64.887
65.0239
65.0483
65.0133
64.9491
64.8711
64.7864
64.6987
64.6093
64.5226
64.44
64.3556
64.2661
64.1638
64.0335
63.8442
63.5359
62.9943
62.0224
60.3654
58.0702
56.6271
58.083
58.5306
59.2473
60.3725
61.7255
62.9828
63.9424
64.5602
64.8941
65.0342
65.0598
65.0248
64.9601
64.8816
64.7966
64.7088
64.6196
64.5365
64.4547
64.371
64.2819
64.1799
64.049
63.8583
63.5469
63
62.0189
60.3515
58.0593
56.6411
58.1123
58.5553
59.2559
60.3639
61.7076
62.9669
63.9346
64.5611
64.9014
65.0453
65.0724
65.0374
64.9723
64.8934
64.8082
64.7202
64.631
64.5505
64.4694
64.3861
64.2973
64.1951
64.0638
63.8716
63.5573
63.0047
62.0146
60.3373
58.0484
56.6547
58.1401
58.5789
59.2644
60.3553
61.6897
62.9507
63.9265
64.5619
64.9089
65.0568
65.0856
65.0511
64.9858
64.9063
64.8206
64.7324
64.6448
64.5647
64.4839
64.401
64.3124
64.2101
64.078
63.8844
63.5669
63.0088
62.0097
60.3228
58.0376
56.6676
58.1665
58.6018
59.2729
60.3469
61.6718
62.9343
63.9181
64.5625
64.9165
65.0686
65.0994
65.0655
65
64.9201
64.834
64.7455
64.6589
64.579
64.4984
64.4157
64.3271
64.2244
64.0918
63.8966
63.576
63.0124
62.0043
60.3081
58.027
56.68
58.1917
58.6238
59.2814
60.3387
61.654
62.9177
63.9093
64.5627
64.924
65.0807
65.1136
65.0803
65.0147
64.9345
64.8481
64.7592
64.6733
64.5934
64.513
64.4303
64.3416
64.2387
64.1051
63.9082
63.5847
63.0154
61.9984
60.2932
58.0165
56.692
58.2159
58.6451
59.29
60.3308
61.6363
62.9009
63.9001
64.5627
64.9314
65.0927
65.1281
65.0957
65.0301
64.9496
64.8628
64.7736
64.6879
64.6081
64.5275
64.4448
64.356
64.2527
64.1182
63.9196
63.5929
63.0179
61.9923
60.2783
58.0062
56.7035
58.2392
58.6657
59.2986
60.3233
61.6189
62.884
63.8906
64.5623
64.9386
65.1047
65.1427
65.1113
65.0458
64.965
64.8778
64.7883
64.7027
64.6228
64.5422
64.4594
64.3702
64.2664
64.131
63.9307
63.6008
63.0202
61.9857
60.2632
57.9962
56.7147
58.2617
58.686
59.3072
60.316
61.6018
62.867
63.8808
64.5616
64.9455
65.1167
65.1575
65.1271
65.0618
64.9808
64.8933
64.8034
64.7176
64.6376
64.5569
64.4738
64.3843
64.2799
64.1435
63.9416
63.6084
63.0221
61.9789
60.2481
57.9863
56.7255
58.2835
58.7057
59.316
60.3091
61.5848
62.85
63.8708
64.5605
64.9521
65.1286
65.1722
65.143
65.078
64.9968
64.9089
64.8188
64.7328
64.6526
64.5716
64.4882
64.3984
64.2934
64.156
63.9521
63.6157
63.0237
61.9719
60.233
57.9766
56.7361
58.3047
58.725
59.3249
60.3027
61.5682
62.8329
63.8604
64.5591
64.9586
65.1404
65.1868
65.159
65.0944
65.0131
64.9249
64.8343
64.7481
64.6676
64.5863
64.5027
64.4123
64.3067
64.1682
63.9625
63.6228
63.0251
61.9646
60.218
57.9672
56.7464
58.3253
58.7439
59.3337
60.2965
61.552
62.8159
63.8498
64.5573
64.9646
65.1519
65.2014
65.175
65.1108
65.0294
64.941
64.8501
64.7633
64.6825
64.601
64.517
64.4263
64.32
64.1804
63.9728
63.6297
63.0262
61.9571
60.2029
57.9581
56.7565
58.3454
58.7624
59.3428
60.2908
61.5361
62.799
63.8389
64.5552
64.9703
65.1631
65.2158
65.191
65.1273
65.0459
64.9571
64.8659
64.7788
64.6976
64.6158
64.5314
64.4401
64.3331
64.1924
63.9829
63.6364
63.0272
61.9496
60.1879
57.9492
56.7663
58.365
58.7807
59.3519
60.2856
61.5205
62.782
63.8279
64.5528
64.9757
65.1741
65.2302
65.2069
65.1437
65.0622
64.9733
64.8819
64.7941
64.7126
64.6304
64.5457
64.4539
64.3462
64.2043
63.9928
63.6429
63.0278
61.9419
60.1731
57.9406
56.776
58.3841
58.7986
59.3611
60.2807
61.5053
62.7652
63.8166
64.55
64.9808
65.1848
65.2444
65.2226
65.1601
65.0787
64.9896
64.8978
64.8095
64.7277
64.6451
64.5599
64.4676
64.3591
64.2161
64.0027
63.6494
63.0285
61.934
60.1583
57.9323
56.7856
58.4029
58.8163
59.3704
60.2762
61.4905
62.7484
63.8052
64.5469
64.9855
65.1953
65.2582
65.2384
65.1764
65.0951
65.0059
64.9138
64.8249
64.7427
64.6598
64.5741
64.4813
64.3721
64.2278
64.0124
63.6555
63.0288
61.9261
60.1437
57.9242
56.795
58.4212
58.8337
59.3798
60.2721
61.4761
62.7318
63.7936
64.5435
64.99
65.2055
65.2719
65.2539
65.1926
65.1114
65.0221
64.9296
64.8404
64.7578
64.6744
64.5883
64.4949
64.3849
64.2394
64.022
63.6617
63.0291
61.9181
60.1293
57.9164
56.8042
58.4393
58.8509
59.3893
60.2684
61.4621
62.7154
63.7818
64.5398
64.9941
65.2154
65.2855
65.2692
65.2088
65.1277
65.0382
64.9455
64.8556
64.7728
64.689
64.6024
64.5085
64.3977
64.251
64.0315
63.6677
63.0293
61.91
60.1149
57.9089
56.8134
58.457
58.8678
59.3988
60.265
61.4484
62.6991
63.7699
64.5358
64.9979
65.225
65.2988
65.2845
65.2248
65.1439
65.0543
64.9615
64.871
64.7877
64.7035
64.6165
64.522
64.4104
64.2625
64.0409
63.6736
63.0293
61.9019
60.1007
57.9017
56.8224
58.4744
58.8846
59.4084
60.2621
61.4351
62.6829
63.7579
64.5315
65.0013
65.2344
65.3119
65.2995
65.2406
65.1601
65.0703
64.9772
64.8862
64.8026
64.718
64.6305
64.5355
64.4231
64.2739
64.0503
63.6794
63.0291
61.8937
60.0866
57.8947
56.8314
58.4915
58.901
59.418
60.2595
61.4223
62.6669
63.7458
64.5271
65.0045
65.2434
65.3247
65.3144
65.2564
65.1761
65.0862
64.9929
64.9013
64.8173
64.7324
64.6445
64.5488
64.4356
64.2853
64.0595
63.6851
63.029
61.8854
60.0728
57.888
56.8403
58.5084
58.9174
59.4279
60.2573
61.4097
62.6511
63.7337
64.5222
65.0073
65.2523
65.3372
65.3291
65.2721
65.192
65.1021
65.0087
64.9165
64.8321
64.7468
64.6584
64.5621
64.4481
64.2965
64.0687
63.6906
63.0287
61.8772
60.059
57.8816
56.8492
58.525
58.9335
59.4376
60.2553
61.3976
62.6354
63.7215
64.5173
65.0099
65.2607
65.3497
65.3436
65.2875
65.2078
65.1178
65.0241
64.9315
64.8469
64.7611
64.6723
64.5755
64.4606
64.3077
64.0777
63.6961
63.0283
61.8688
60.0455
57.8753
56.858
58.5413
58.9495
59.4475
60.2537
61.3857
62.6199
63.7092
64.512
65.0122
65.269
65.3617
65.3579
65.3028
65.2234
65.1335
65.0396
64.9465
64.8614
64.7753
64.686
64.5886
64.473
64.3188
64.0867
63.7014
63.0277
61.8605
60.0321
57.8694
56.8667
58.5575
58.9653
59.4574
60.2524
61.3743
62.6047
63.6969
64.5066
65.0141
65.277
65.3737
65.3719
65.318
65.2389
65.149
65.055
64.9613
64.876
64.7895
64.6997
64.6017
64.4852
64.3299
64.0956
63.7067
63.0271
61.8522
60.0189
57.8638
56.8754
58.5733
58.9809
59.4674
60.2514
61.3633
62.5896
63.6846
64.5009
65.0158
65.2846
65.3854
65.3859
65.333
65.2543
65.1644
65.0703
64.9761
64.8904
64.8036
64.7133
64.6148
64.4976
64.3408
64.1045
63.7119
63.0264
61.8439
60.0058
57.8584
56.884
58.589
58.9964
59.4773
60.2507
61.3525
62.5747
63.6722
64.4952
65.0173
65.2921
65.3968
65.3997
65.3479
65.2696
65.1797
65.0855
64.9909
64.9048
64.8176
64.7269
64.6278
64.5097
64.3517
64.1132
63.717
63.0256
61.8355
59.993
57.8532
56.8926
58.6045
59.0117
59.4875
60.2503
61.3421
62.5601
63.6598
64.4891
65.0185
65.2992
65.408
65.4132
65.3626
65.2847
65.1949
65.1005
65.0055
64.9192
64.8315
64.7404
64.6408
64.5218
64.3626
64.1219
63.722
63.0247
61.8271
59.9802
57.8483
56.9012
58.6197
59.0268
59.4975
60.2501
61.332
62.5455
63.6475
64.4829
65.0194
65.3061
65.419
65.4266
65.3772
65.2997
65.2101
65.1155
65.0201
64.9334
64.8453
64.7539
64.6536
64.5339
64.3733
64.1305
63.7269
63.0238
61.8187
59.9677
57.8436
56.9098
58.6348
59.0418
59.5076
60.2502
61.3224
62.5313
63.6351
64.4766
65.0201
65.3127
65.4298
65.4398
65.3915
65.3146
65.2249
65.1303
65.0345
64.9475
64.8592
64.7672
64.6665
64.5459
64.384
64.1391
63.7317
63.0228
61.8103
59.9553
57.839
56.9183
58.6496
59.0567
59.5177
60.2505
61.3129
62.5172
63.6226
64.4701
65.0205
65.3191
65.4404
65.4528
65.4058
65.3294
65.2399
65.1452
65.0489
64.9615
64.8729
64.7805
64.6792
64.5578
64.3946
64.1475
63.7364
63.0216
61.802
59.9431
57.8348
56.9269
58.6643
59.0714
59.5279
60.2515
61.3038
62.5034
63.6103
64.4634
65.0208
65.3253
65.4506
65.4656
65.4198
65.3441
65.2546
65.1598
65.0633
64.9756
64.8866
64.7938
64.6919
64.5697
64.4052
64.1558
63.7411
63.0204
61.7936
59.9311
57.8307
56.9353
58.6788
59.086
59.5381
60.2526
61.2951
62.4897
63.598
64.4566
65.0208
65.3312
65.4607
65.4783
65.4338
65.3585
65.2692
65.1744
65.0777
64.9895
64.9001
64.807
64.7045
64.5815
64.4157
64.1641
63.7456
63.0191
61.7852
59.9192
57.827
56.9439
58.6931
59.1005
59.5483
60.254
61.2866
62.4764
63.5857
64.4497
65.0206
65.3369
65.4707
65.4907
65.4477
65.3728
65.2837
65.1889
65.092
65.0033
64.9136
64.8201
64.717
64.5932
64.4261
64.1723
63.7501
63.0178
61.7768
59.9075
57.8233
56.9524
58.7073
59.1148
59.5584
60.2557
61.2784
62.4631
63.5734
64.4427
65.0201
65.3424
65.4803
65.503
65.4613
65.3872
65.2982
65.2032
65.1063
65.017
64.9271
64.8331
64.7295
64.6049
64.4365
64.1805
63.7545
63.0164
61.7684
59.896
57.8199
56.9608
58.7213
59.1289
59.5687
60.2574
61.2706
62.4501
63.5611
64.4355
65.0196
65.3476
65.4899
65.5151
65.4748
65.4013
65.3125
65.2175
65.1204
65.0308
64.9404
64.8461
64.7419
64.6165
64.4468
64.1886
63.7588
63.0149
61.7601
59.8846
57.8166
56.9693
58.7352
59.143
59.5789
60.2594
61.2629
62.4372
63.549
64.4282
65.0188
65.3526
65.4991
65.5271
65.4882
65.4153
65.3266
65.2317
65.1344
65.0443
64.9538
64.859
64.7543
64.6281
64.457
64.1966
63.763
63.0134
61.7517
59.8734
57.8136
56.9777
58.7488
59.1569
59.5891
60.2616
61.2556
62.4246
63.5368
64.4208
65.0177
65.3575
65.5083
65.5389
65.5014
65.4292
65.3408
65.2458
65.1484
65.0579
64.967
64.8718
64.7666
64.6396
64.4672
64.2045
63.7671
63.0117
61.7434
59.8624
57.8108
56.9862
58.7624
59.1708
59.5993
60.2639
61.2486
62.4122
63.5247
64.4133
65.0165
65.3621
65.5171
65.5505
65.5145
65.4429
65.3548
65.2597
65.1622
65.0713
64.9802
64.8846
64.7789
64.651
64.4773
64.2123
63.7711
63.01
61.7351
59.8514
57.8081
56.9947
58.7758
59.1845
59.6096
60.2664
61.2418
62.4
63.5127
64.4057
65.0152
65.3664
65.5259
65.5619
65.5275
65.4565
65.3687
65.2736
65.176
65.0847
64.9932
64.8973
64.7911
64.6624
64.4874
64.2201
63.7752
63.0083
61.7268
59.8407
57.8056
57.0031
58.7891
59.1981
59.6198
60.269
61.2353
62.3881
63.5007
64.3981
65.0136
65.3706
65.5344
65.5732
65.5403
65.4701
65.3824
65.2874
65.1897
65.098
65.0062
64.9099
64.8032
64.6736
64.4973
64.2277
63.7791
63.0064
61.7185
59.8301
57.8034
57.0116
58.8022
59.2115
59.63
60.2718
61.229
62.3763
63.4888
64.3904
65.0118
65.3746
65.5426
65.5843
65.5529
65.4835
65.3961
65.3011
65.2034
65.1112
65.0191
64.9225
64.8152
64.6849
64.5073
64.2354
63.7829
63.0045
61.7102
59.8198
57.8012
57.02
58.8152
59.2248
59.6402
60.2748
61.2229
62.3647
63.477
64.3826
65.01
65.3784
65.5508
65.5953
65.5655
65.4968
65.4097
65.3148
65.2169
65.1244
65.0321
64.9351
64.8272
64.6961
64.517
64.2429
63.7866
63.0026
61.702
59.8095
57.7993
57.0285
58.828
59.2381
59.6504
60.2778
61.2171
62.3534
63.4652
64.3747
65.0079
65.382
65.5588
65.6061
65.5779
65.5101
65.4232
65.3283
65.2303
65.1375
65.0449
64.9475
64.8391
64.7072
64.5268
64.2504
63.7901
63.0005
61.6938
59.7993
57.7974
57.0369
58.8407
59.2512
59.6605
60.2811
61.2116
62.3422
63.4535
64.3667
65.0057
65.3854
65.5666
65.6167
65.5902
65.5231
65.4366
65.3417
65.2436
65.1505
65.0576
64.9599
64.851
64.7182
64.5365
64.2578
63.7937
62.9984
61.6856
59.7894
57.7958
57.0454
58.8533
59.2643
59.6708
60.2844
61.2063
62.3312
63.4419
64.3587
65.0034
65.3887
65.5742
65.6272
65.6023
65.5361
65.4499
65.3552
65.257
65.1635
65.0703
64.9723
64.8628
64.7293
64.5462
64.265