/*--------------------------------*- C++ -*----------------------------------*\
  =========                 |
  \\      /  F ield         | OpenFOAM: The Open Source CFD Toolbox
   \\    /   O peration     | Website:  https://openfoam.org
    \\  /    A nd           | Version:  8
     \\/     M anipulation  |
\*---------------------------------------------------------------------------*/
FoamFile
{
    version     2.0;
    format      ascii;
    class       volScalarField;
    location    "1";
    object      Vt;
}
// * * * * * * * * * * * * * * * * * * * * * * * * * * * * * * * * * * * * * //

dimensions      [0 3 0 0 0 0 0];

internalField   nonuniform List<scalar> 
6300
(
1.69038e-16
8.45271e-16
9.74155e-16
9.77203e-16
9.78093e-16
9.78634e-16
9.79e-16
9.79268e-16
9.79478e-16
9.7965e-16
9.79796e-16
9.79922e-16
9.80033e-16
9.80131e-16
9.80219e-16
9.80299e-16
9.80371e-16
9.80436e-16
9.80496e-16
9.8055e-16
9.806e-16
9.80645e-16
9.80688e-16
9.80727e-16
9.80763e-16
9.80796e-16
9.80825e-16
9.80842e-16
9.80808e-16
9.8048e-16
8.80607e-17
7.0641e-16
9.63783e-16
9.72466e-16
9.74259e-16
9.75362e-16
9.76114e-16
9.76669e-16
9.77106e-16
9.77465e-16
9.7777e-16
9.78033e-16
9.78265e-16
9.78469e-16
9.78651e-16
9.78816e-16
9.78966e-16
9.79101e-16
9.79225e-16
9.79337e-16
9.79439e-16
9.79533e-16
9.7962e-16
9.79701e-16
9.79775e-16
9.79843e-16
9.79902e-16
9.79937e-16
9.79867e-16
9.79214e-16
5.81416e-17
6.03673e-16
9.51983e-16
9.68219e-16
9.70675e-16
9.72233e-16
9.7332e-16
9.74134e-16
9.74779e-16
9.75312e-16
9.75765e-16
9.76158e-16
9.76503e-16
9.76808e-16
9.77081e-16
9.7733e-16
9.77556e-16
9.77759e-16
9.77946e-16
9.78115e-16
9.7827e-16
9.78413e-16
9.78545e-16
9.78667e-16
9.7878e-16
9.78883e-16
9.78972e-16
9.79023e-16
9.78916e-16
9.77941e-16
4.39905e-17
5.27589e-16
9.38496e-16
9.64304e-16
9.67289e-16
9.69223e-16
9.70603e-16
9.71652e-16
9.7249e-16
9.73186e-16
9.7378e-16
9.74297e-16
9.74751e-16
9.75153e-16
9.75515e-16
9.75845e-16
9.76145e-16
9.76417e-16
9.76666e-16
9.76892e-16
9.77101e-16
9.77292e-16
9.77469e-16
9.77632e-16
9.77784e-16
9.77922e-16
9.78042e-16
9.78108e-16
9.7796e-16
9.76666e-16
3.68349e-17
4.73784e-16
9.24053e-16
9.60699e-16
9.64134e-16
9.66378e-16
9.68007e-16
9.69262e-16
9.70274e-16
9.7112e-16
9.71844e-16
9.72475e-16
9.73031e-16
9.73523e-16
9.7397e-16
9.74379e-16
9.7475e-16
9.75087e-16
9.75397e-16
9.75679e-16
9.75938e-16
9.76177e-16
9.76398e-16
9.76602e-16
9.76791e-16
9.76964e-16
9.77112e-16
9.77192e-16
9.77e-16
9.75389e-16
3.33699e-17
4.36851e-16
9.09438e-16
9.57332e-16
9.61175e-16
9.63681e-16
9.65524e-16
9.66961e-16
9.68128e-16
9.6911e-16
9.69954e-16
9.70691e-16
9.71342e-16
9.71921e-16
9.72449e-16
9.72932e-16
9.73371e-16
9.7377e-16
9.74139e-16
9.74475e-16
9.74784e-16
9.75069e-16
9.75332e-16
9.75576e-16
9.75801e-16
9.76008e-16
9.76183e-16
9.76275e-16
9.76035e-16
9.74111e-16
3.19145e-17
4.12113e-16
8.95349e-16
9.54154e-16
9.58383e-16
9.61114e-16
9.63145e-16
9.64741e-16
9.66049e-16
9.67154e-16
9.68108e-16
9.68944e-16
9.69684e-16
9.70343e-16
9.70949e-16
9.71503e-16
9.72008e-16
9.72468e-16
9.72894e-16
9.73282e-16
9.73639e-16
9.73968e-16
9.74273e-16
9.74554e-16
9.74815e-16
9.75054e-16
9.75256e-16
9.75357e-16
9.75065e-16
9.72831e-16
3.16352e-17
3.96019e-16
8.82302e-16
9.51129e-16
9.55734e-16
9.58665e-16
9.6086e-16
9.62598e-16
9.64032e-16
9.65249e-16
9.66305e-16
9.67233e-16
9.68055e-16
9.68792e-16
9.69471e-16
9.70093e-16
9.7066e-16
9.71181e-16
9.71662e-16
9.721e-16
9.72503e-16
9.72875e-16
9.73219e-16
9.73538e-16
9.73833e-16
9.74103e-16
9.7433e-16
9.74439e-16
9.7409e-16
9.7155e-16
3.21166e-17
3.86056e-16
8.70611e-16
9.48235e-16
9.53209e-16
9.56319e-16
9.5866e-16
9.60526e-16
9.62074e-16
9.63394e-16
9.64544e-16
9.65556e-16
9.66455e-16
9.67265e-16
9.68014e-16
9.68701e-16
9.69329e-16
9.69909e-16
9.70441e-16
9.70928e-16
9.71376e-16
9.71789e-16
9.72172e-16
9.72527e-16
9.72856e-16
9.73155e-16
9.73405e-16
9.73519e-16
9.73112e-16
9.7027e-16
3.31433e-17
3.80504e-16
8.60421e-16
9.45456e-16
9.50794e-16
9.54066e-16
9.5654e-16
9.58521e-16
9.60171e-16
9.61586e-16
9.62821e-16
9.63912e-16
9.64883e-16
9.65762e-16
9.66578e-16
9.67328e-16
9.68016e-16
9.68651e-16
9.69234e-16
9.69767e-16
9.70258e-16
9.70712e-16
9.71132e-16
9.71522e-16
9.71882e-16
9.7221e-16
9.72482e-16
9.72599e-16
9.72129e-16
9.68989e-16
3.45982e-17
3.78194e-16
8.51749e-16
9.42781e-16
9.48477e-16
9.51898e-16
9.54492e-16
9.56577e-16
9.58322e-16
9.59823e-16
9.61137e-16
9.62299e-16
9.63337e-16
9.64284e-16
9.65163e-16
9.65973e-16
9.6672e-16
9.67409e-16
9.6804e-16
9.68618e-16
9.6915e-16
9.69643e-16
9.70099e-16
9.70522e-16
9.70913e-16
9.71268e-16
9.71561e-16
9.71678e-16
9.71143e-16
9.6771e-16
3.64152e-17
3.78324e-16
8.44528e-16
9.40203e-16
9.46247e-16
9.49805e-16
9.5251e-16
9.5469e-16
9.56521e-16
9.58101e-16
9.59487e-16
9.60717e-16
9.61818e-16
9.62829e-16
9.63769e-16
9.64639e-16
9.65441e-16
9.66181e-16
9.66859e-16
9.67479e-16
9.68052e-16
9.68582e-16
9.69072e-16
9.69528e-16
9.69949e-16
9.7033e-16
9.70641e-16
9.70757e-16
9.70153e-16
9.66431e-16
3.85553e-17
3.80328e-16
8.3864e-16
9.37715e-16
9.44095e-16
9.47783e-16
9.50589e-16
9.52857e-16
9.54767e-16
9.56419e-16
9.57872e-16
9.59164e-16
9.60325e-16
9.61397e-16
9.62395e-16
9.63324e-16
9.6418e-16
9.64969e-16
9.65691e-16
9.66353e-16
9.66964e-16
9.67529e-16
9.68054e-16
9.6854e-16
9.6899e-16
9.69396e-16
9.69724e-16
9.69835e-16
9.69159e-16
9.65154e-16
4.09951e-17
3.83801e-16
8.33942e-16
9.35314e-16
9.42016e-16
9.45824e-16
9.48725e-16
9.51073e-16
9.53055e-16
9.54774e-16
9.56289e-16
9.57638e-16
9.58857e-16
9.59988e-16
9.61043e-16
9.62028e-16
9.62936e-16
9.63772e-16
9.64536e-16
9.65238e-16
9.65886e-16
9.66486e-16
9.67042e-16
9.67558e-16
9.68035e-16
9.68465e-16
9.68809e-16
9.68913e-16
9.68163e-16
9.6388e-16
4.37196e-17
3.88438e-16
8.30284e-16
9.32994e-16
9.40001e-16
9.43924e-16
9.46913e-16
9.49336e-16
9.51385e-16
9.53165e-16
9.54737e-16
9.56139e-16
9.57413e-16
9.586e-16
9.59713e-16
9.60752e-16
9.61709e-16
9.6259e-16
9.63395e-16
9.64135e-16
9.64818e-16
9.65451e-16
9.66038e-16
9.66583e-16
9.67086e-16
9.67538e-16
9.67896e-16
9.67991e-16
9.67163e-16
9.62607e-16
4.67188e-17
3.94005e-16
8.27521e-16
9.30753e-16
9.38047e-16
9.42078e-16
9.4515e-16
9.47642e-16
9.49753e-16
9.5159e-16
9.53213e-16
9.54666e-16
9.55994e-16
9.57235e-16
9.58405e-16
9.59496e-16
9.60499e-16
9.61423e-16
9.62267e-16
9.63043e-16
9.63761e-16
9.64425e-16
9.65042e-16
9.65615e-16
9.66143e-16
9.66615e-16
9.66985e-16
9.67069e-16
9.6616e-16
9.61337e-16
4.99857e-17
4.00318e-16
8.25516e-16
9.28587e-16
9.36147e-16
9.40282e-16
9.43431e-16
9.45989e-16
9.48157e-16
9.50046e-16
9.51718e-16
9.53218e-16
9.54598e-16
9.55892e-16
9.57118e-16
9.58258e-16
9.59307e-16
9.6027e-16
9.61152e-16
9.61963e-16
9.62714e-16
9.63409e-16
9.64054e-16
9.64653e-16
9.65204e-16
9.65697e-16
9.66077e-16
9.66146e-16
9.65155e-16
9.6007e-16
5.35148e-17
4.07229e-16
8.24144e-16
9.26492e-16
9.34298e-16
9.38532e-16
9.41755e-16
9.44373e-16
9.46594e-16
9.48531e-16
9.50249e-16
9.51794e-16
9.53225e-16
9.54572e-16
9.55851e-16
9.57038e-16
9.58131e-16
9.59133e-16
9.60051e-16
9.60896e-16
9.61677e-16
9.62402e-16
9.63074e-16
9.63698e-16
9.64272e-16
9.64783e-16
9.65172e-16
9.65224e-16
9.64148e-16
9.58807e-16
5.73013e-17
4.14616e-16
8.23297e-16
9.24463e-16
9.32497e-16
9.36825e-16
9.40118e-16
9.42793e-16
9.45064e-16
9.47045e-16
9.48804e-16
9.50394e-16
9.51874e-16
9.53274e-16
9.54605e-16
9.55838e-16
9.56971e-16
9.58011e-16
9.58963e-16
9.5984e-16
9.60651e-16
9.61404e-16
9.62102e-16
9.6275e-16
9.63345e-16
9.63873e-16
9.64269e-16
9.64302e-16
9.63138e-16
9.57547e-16
6.13406e-17
4.22377e-16
8.22877e-16
9.22498e-16
9.30739e-16
9.35158e-16
9.38518e-16
9.41246e-16
9.43563e-16
9.45586e-16
9.47383e-16
9.49018e-16
9.50546e-16
9.51999e-16
9.5338e-16
9.54656e-16
9.55828e-16
9.56903e-16
9.57888e-16
9.58796e-16
9.59636e-16
9.60415e-16
9.61139e-16
9.61809e-16
9.62425e-16
9.62968e-16
9.63369e-16
9.63381e-16
9.62127e-16
9.56291e-16
6.56279e-17
4.30426e-16
8.22802e-16
9.20592e-16
9.29021e-16
9.33529e-16
9.36952e-16
9.39731e-16
9.42091e-16
9.44151e-16
9.45986e-16
9.47664e-16
9.4924e-16
9.50746e-16
9.52174e-16
9.53491e-16
9.54702e-16
9.5581e-16
9.56827e-16
9.57764e-16
9.58632e-16
9.59436e-16
9.60183e-16
9.60876e-16
9.61511e-16
9.62068e-16
9.62472e-16
9.6246e-16
9.61113e-16
9.5504e-16
7.01583e-17
4.38689e-16
8.23002e-16
9.18742e-16
9.27341e-16
9.31934e-16
9.35418e-16
9.38245e-16
9.40644e-16
9.42741e-16
9.44611e-16
9.46332e-16
9.47956e-16
9.49514e-16
9.50987e-16
9.52345e-16
9.53591e-16
9.54732e-16
9.55779e-16
9.56744e-16
9.57638e-16
9.58467e-16
9.59237e-16
9.5995e-16
9.60603e-16
9.61173e-16
9.61578e-16
9.61539e-16
9.60099e-16
9.53794e-16
7.49263e-17
4.47104e-16
8.23415e-16
9.16944e-16
9.25697e-16
9.30373e-16
9.33915e-16
9.36786e-16
9.39223e-16
9.41352e-16
9.43259e-16
9.45023e-16
9.46693e-16
9.48303e-16
9.4982e-16
9.51216e-16
9.52496e-16
9.53668e-16
9.54744e-16
9.55736e-16
9.56656e-16
9.57508e-16
9.58299e-16
9.59032e-16
9.59701e-16
9.60282e-16
9.60687e-16
9.60619e-16
9.59083e-16
9.52552e-16
7.99258e-17
4.55616e-16
8.23991e-16
9.15194e-16
9.24085e-16
9.28842e-16
9.3244e-16
9.35354e-16
9.37825e-16
9.39985e-16
9.41928e-16
9.43734e-16
9.45451e-16
9.47113e-16
9.48671e-16
9.50105e-16
9.51417e-16
9.52619e-16
9.53722e-16
9.54741e-16
9.55684e-16
9.56559e-16
9.5737e-16
9.58121e-16
9.58806e-16
9.59397e-16
9.59799e-16
9.597e-16
9.58066e-16
9.51316e-16
8.51503e-17
4.6418e-16
8.24688e-16
9.13488e-16
9.22504e-16
9.27339e-16
9.30991e-16
9.33945e-16
9.36448e-16
9.38638e-16
9.40618e-16
9.42467e-16
9.44231e-16
9.45943e-16
9.47542e-16
9.4901e-16
9.50354e-16
9.51584e-16
9.52714e-16
9.53757e-16
9.54723e-16
9.5562e-16
9.56451e-16
9.57219e-16
9.57918e-16
9.58517e-16
9.58915e-16
9.58782e-16
9.57048e-16
9.50086e-16
9.0593e-17
4.72753e-16
8.25469e-16
9.11823e-16
9.20952e-16
9.25864e-16
9.29567e-16
9.32559e-16
9.35093e-16
9.37312e-16
9.39329e-16
9.4122e-16
9.43033e-16
9.44793e-16
9.4643e-16
9.47932e-16
9.49306e-16
9.50563e-16
9.51719e-16
9.52786e-16
9.53774e-16
9.5469e-16
9.5554e-16
9.56324e-16
9.57036e-16
9.57643e-16
9.58034e-16
9.57864e-16
9.5603e-16
9.48862e-16
9.62464e-17
4.81303e-16
8.26304e-16
9.10196e-16
9.19427e-16
9.24413e-16
9.28167e-16
9.31194e-16
9.33756e-16
9.36005e-16
9.3806e-16
9.39994e-16
9.41856e-16
9.43662e-16
9.45337e-16
9.46871e-16
9.48273e-16
9.49557e-16
9.50737e-16
9.51827e-16
9.52836e-16
9.53771e-16
9.54638e-16
9.55438e-16
9.56162e-16
9.56774e-16
9.57157e-16
9.56948e-16
9.55011e-16
9.47644e-16
1.02103e-16
4.89799e-16
8.27169e-16
9.08604e-16
9.17927e-16
9.22986e-16
9.26788e-16
9.29849e-16
9.32437e-16
9.34717e-16
9.3681e-16
9.38788e-16
9.407e-16
9.4255e-16
9.44261e-16
9.45826e-16
9.47256e-16
9.48565e-16
9.49769e-16
9.5088e-16
9.51909e-16
9.52863e-16
9.53746e-16
9.5456e-16
9.55295e-16
9.55911e-16
9.56284e-16
9.56033e-16
9.53993e-16
9.46432e-16
1.08154e-16
4.98214e-16
8.28044e-16
9.07044e-16
9.1645e-16
9.21581e-16
9.25429e-16
9.28522e-16
9.31136e-16
9.33449e-16
9.3558e-16
9.37601e-16
9.39564e-16
9.41456e-16
9.43202e-16
9.44797e-16
9.46254e-16
9.47587e-16
9.48813e-16
9.49946e-16
9.50994e-16
9.51965e-16
9.52864e-16
9.53691e-16
9.54435e-16
9.55054e-16
9.55414e-16
9.5512e-16
9.52974e-16
9.45228e-16
1.14392e-16
5.06528e-16
8.28911e-16
9.05513e-16
9.14996e-16
9.20197e-16
9.24089e-16
9.27211e-16
9.29852e-16
9.32198e-16
9.34369e-16
9.36433e-16
9.38447e-16
9.40381e-16
9.4216e-16
9.43784e-16
9.45266e-16
9.46623e-16
9.47871e-16
9.49023e-16
9.50089e-16
9.51077e-16
9.51991e-16
9.5283e-16
9.53583e-16
9.54202e-16
9.54548e-16
9.54208e-16
9.51957e-16
9.44031e-16
1.20809e-16
5.14721e-16
8.29758e-16
9.04009e-16
9.13562e-16
9.18832e-16
9.22766e-16
9.25916e-16
9.28585e-16
9.30966e-16
9.33176e-16
9.35285e-16
9.3735e-16
9.39324e-16
9.41136e-16
9.42787e-16
9.44294e-16
9.45674e-16
9.46942e-16
9.48113e-16
9.49197e-16
9.502e-16
9.51127e-16
9.51978e-16
9.52738e-16
9.53357e-16
9.53686e-16
9.53298e-16
9.5094e-16
9.42842e-16
1.27396e-16
5.22779e-16
8.30574e-16
9.02529e-16
9.12147e-16
9.17484e-16
9.21458e-16
9.24635e-16
9.27335e-16
9.29751e-16
9.32001e-16
9.34154e-16
9.36272e-16
9.38285e-16
9.40127e-16
9.41806e-16
9.43337e-16
9.44738e-16
9.46027e-16
9.47216e-16
9.48316e-16
9.49334e-16
9.50274e-16
9.51135e-16
9.51901e-16
9.52517e-16
9.52829e-16
9.52389e-16
9.49924e-16
9.4166e-16
1.34144e-16
5.30687e-16
8.31349e-16
9.01071e-16
9.1075e-16
9.16153e-16
9.20164e-16
9.2337e-16
9.26101e-16
9.28554e-16
9.30844e-16
9.33042e-16
9.35213e-16
9.37263e-16
9.39135e-16
9.4084e-16
9.42394e-16
9.43816e-16
9.45124e-16
9.46331e-16
9.47447e-16
9.48478e-16
9.49431e-16
9.50301e-16
9.51071e-16
9.51684e-16
9.51975e-16
9.51483e-16
9.4891e-16
9.40487e-16
1.41048e-16
5.38437e-16
8.32078e-16
8.99634e-16
9.0937e-16
9.14836e-16
9.18883e-16
9.22119e-16
9.24883e-16
9.27373e-16
9.29704e-16
9.31947e-16
9.34172e-16
9.36258e-16
9.3816e-16
9.39889e-16
9.41466e-16
9.42909e-16
9.44235e-16
9.45459e-16
9.46589e-16
9.47634e-16
9.48597e-16
9.49476e-16
9.5025e-16
9.50858e-16
9.51126e-16
9.50579e-16
9.47897e-16
9.39323e-16
1.48097e-16
5.46019e-16
8.32755e-16
8.98215e-16
9.08005e-16
9.1353e-16
9.17614e-16
9.20882e-16
9.2368e-16
9.26208e-16
9.28581e-16
9.30873e-16
9.33149e-16
9.3527e-16
9.372e-16
9.38954e-16
9.40553e-16
9.42015e-16
9.4336e-16
9.44599e-16
9.45744e-16
9.46801e-16
9.47774e-16
9.4866e-16
9.49437e-16
9.50038e-16
9.50281e-16
9.49677e-16
9.46886e-16
9.38168e-16
1.55287e-16
5.53429e-16
8.33378e-16
8.96811e-16
9.0665e-16
9.12235e-16
9.16358e-16
9.19658e-16
9.22492e-16
9.25059e-16
9.27474e-16
9.29819e-16
9.32144e-16
9.34299e-16
9.36256e-16
9.38034e-16
9.39654e-16
9.41136e-16
9.42497e-16
9.43752e-16
9.4491e-16
9.45979e-16
9.46962e-16
9.47854e-16
9.48632e-16
9.49224e-16
9.49441e-16
9.48778e-16
9.45878e-16
9.37023e-16
1.6261e-16
5.6066e-16
8.33941e-16
8.95417e-16
9.05304e-16
9.1095e-16
9.15113e-16
9.18449e-16
9.2132e-16
9.23926e-16
9.26385e-16
9.28784e-16
9.31156e-16
9.33344e-16
9.35329e-16
9.3713e-16
9.3877e-16
9.40271e-16
9.41648e-16
9.42918e-16
9.44089e-16
9.45169e-16
9.4616e-16
9.47058e-16
9.47835e-16
9.48418e-16
9.48606e-16
9.47881e-16
9.44873e-16
9.35887e-16
1.70056e-16
5.67688e-16
8.34433e-16
8.9403e-16
9.03967e-16
9.09675e-16
9.13879e-16
9.17252e-16
9.20161e-16
9.22809e-16
9.25313e-16
9.27768e-16
9.30186e-16
9.32406e-16
9.34417e-16
9.36241e-16
9.37901e-16
9.39419e-16
9.40813e-16
9.42096e-16
9.43279e-16
9.4437e-16
9.45369e-16
9.46271e-16
9.47047e-16
9.47618e-16
9.47776e-16
9.46988e-16
9.43871e-16
9.34762e-16
1.77549e-16
5.74512e-16
8.34853e-16
8.9265e-16
9.02639e-16
9.0841e-16
9.12657e-16
9.16069e-16
9.19017e-16
9.21706e-16
9.24257e-16
9.26771e-16
9.29233e-16
9.31484e-16
9.33521e-16
9.35367e-16
9.37047e-16
9.38583e-16
9.39992e-16
9.41288e-16
9.42483e-16
9.43582e-16
9.44589e-16
9.45494e-16
9.46267e-16
9.46825e-16
9.4695e-16
9.46097e-16
9.42872e-16
9.33648e-16
1.85094e-16
5.81132e-16
8.35204e-16
8.91276e-16
9.01319e-16
9.07154e-16
9.11447e-16
9.14898e-16
9.17887e-16
9.20618e-16
9.23218e-16
9.25792e-16
9.28296e-16
9.30579e-16
9.32641e-16
9.34509e-16
9.36208e-16
9.3776e-16
9.39184e-16
9.40493e-16
9.41698e-16
9.42807e-16
9.4382e-16
9.44727e-16
9.45497e-16
9.46039e-16
9.4613e-16
9.4521e-16
9.41877e-16
9.32545e-16
1.92703e-16
5.87555e-16
8.35486e-16
8.89909e-16
9.00007e-16
9.05908e-16
9.10247e-16
9.1374e-16
9.16769e-16
9.19545e-16
9.22196e-16
9.24832e-16
9.27378e-16
9.2969e-16
9.31777e-16
9.33667e-16
9.35384e-16
9.36952e-16
9.3839e-16
9.39711e-16
9.40927e-16
9.42043e-16
9.43061e-16
9.43971e-16
9.44735e-16
9.45261e-16
9.45315e-16
9.44327e-16
9.40887e-16
9.31453e-16
2.00375e-16
5.93783e-16
8.357e-16
8.88546e-16
8.98703e-16
9.04671e-16
9.09058e-16
9.12593e-16
9.15666e-16
9.18487e-16
9.2119e-16
9.23891e-16
9.26476e-16
9.28818e-16
9.3093e-16
9.3284e-16
9.34575e-16
9.36159e-16
9.3761e-16
9.38943e-16
9.40168e-16
9.41292e-16
9.42315e-16
9.43224e-16
9.43982e-16
9.4449e-16
9.44506e-16
9.43447e-16
9.39901e-16
9.30374e-16
2.08116e-16
5.99826e-16
8.35851e-16
8.87189e-16
8.97407e-16
9.03443e-16
9.07879e-16
9.11458e-16
9.14575e-16
9.17444e-16
9.20201e-16
9.22968e-16
9.25592e-16
9.27964e-16
9.30099e-16
9.32029e-16
9.33782e-16
9.35381e-16
9.36845e-16
9.38189e-16
9.39423e-16
9.40553e-16
9.4158e-16
9.42489e-16
9.43239e-16
9.43727e-16
9.43702e-16
9.42572e-16
9.3892e-16
9.29307e-16
2.15938e-16
6.05691e-16
8.35942e-16
8.85838e-16
8.96118e-16
9.02224e-16
9.0671e-16
9.10336e-16
9.13498e-16
9.16416e-16
9.19229e-16
9.22064e-16
9.24727e-16
9.27127e-16
9.29285e-16
9.31235e-16
9.33005e-16
9.34618e-16
9.36095e-16
9.37449e-16
9.38691e-16
9.39827e-16
9.40856e-16
9.41764e-16
9.42505e-16
9.42971e-16
9.42903e-16
9.417e-16
9.37945e-16
9.28254e-16
2.23844e-16
6.11387e-16
8.35975e-16
8.84492e-16
8.94837e-16
9.01014e-16
9.05552e-16
9.09225e-16
9.12434e-16
9.15403e-16
9.1828e-16
9.2118e-16
9.2388e-16
9.26307e-16
9.28489e-16
9.30458e-16
9.32244e-16
9.33871e-16
9.35359e-16
9.36722e-16
9.37972e-16
9.39113e-16
9.40145e-16
9.41049e-16
9.4178e-16
9.42222e-16
9.42111e-16
9.40834e-16
9.36975e-16
9.27214e-16
2.31844e-16
6.16924e-16
8.35955e-16
8.83151e-16
8.93563e-16
8.99812e-16
9.04404e-16
9.08126e-16
9.11385e-16
9.14407e-16
9.17355e-16
9.20317e-16
9.23052e-16
9.25507e-16
9.2771e-16
9.29698e-16
9.31499e-16
9.33139e-16
9.34638e-16
9.36011e-16
9.37267e-16
9.38413e-16
9.39445e-16
9.40346e-16
9.41065e-16
9.41482e-16
9.41324e-16
9.39972e-16
9.36013e-16
9.26188e-16
2.39952e-16
6.22321e-16
8.35886e-16
8.81817e-16
8.92298e-16
8.98619e-16
9.03267e-16
9.07039e-16
9.10349e-16
9.13429e-16
9.16454e-16
9.19475e-16
9.22245e-16
9.24726e-16
9.2695e-16
9.28955e-16
9.30771e-16
9.32424e-16
9.33933e-16
9.35313e-16
9.36576e-16
9.37725e-16
9.38758e-16
9.39653e-16
9.40359e-16
9.40749e-16
9.40544e-16
9.39115e-16
9.35056e-16
9.25176e-16
2.48194e-16
6.27597e-16
8.35776e-16
8.80489e-16
8.91041e-16
8.97436e-16
9.02142e-16
9.05966e-16
9.09329e-16
9.12471e-16
9.1558e-16
9.18656e-16
9.21459e-16
9.23965e-16
9.2621e-16
9.28232e-16
9.30061e-16
9.31725e-16
9.33244e-16
9.34631e-16
9.35899e-16
9.37051e-16
9.38082e-16
9.38972e-16
9.39663e-16
9.40025e-16
9.39769e-16
9.38263e-16
9.34108e-16
9.2418e-16
2.56601e-16
6.32777e-16
8.3563e-16
8.79171e-16
8.89794e-16
8.96264e-16
9.01028e-16
9.04906e-16
9.08325e-16
9.11533e-16
9.14733e-16
9.17861e-16
9.20697e-16
9.23227e-16
9.2549e-16
9.27527e-16
9.2937e-16
9.31044e-16
9.32571e-16
9.33965e-16
9.35236e-16
9.3639e-16
9.37419e-16
9.38302e-16
9.38976e-16
9.39308e-16
9.39001e-16
9.37417e-16
9.33167e-16
9.232e-16
2.65223e-16
6.37895e-16
8.3546e-16
8.77864e-16
8.88559e-16
8.95104e-16
8.99928e-16
9.03862e-16
9.0734e-16
9.1062e-16
9.13916e-16
9.17094e-16
9.19959e-16
9.22511e-16
9.24792e-16
9.26843e-16
9.28697e-16
9.30381e-16
9.31914e-16
9.33314e-16
9.34588e-16
9.35742e-16
9.36769e-16
9.37642e-16
9.38299e-16
9.38598e-16
9.38239e-16
9.36576e-16
9.32234e-16
9.22236e-16
2.74131e-16
6.42999e-16
8.35279e-16
8.76572e-16
8.87339e-16
8.93959e-16
8.98844e-16
9.02836e-16
9.06378e-16
9.0974e-16
9.13133e-16
9.16356e-16
9.19248e-16
9.21821e-16
9.24118e-16
9.26181e-16
9.28045e-16
9.29736e-16
9.31275e-16
9.32678e-16
9.33955e-16
9.35109e-16
9.36131e-16
9.36994e-16
9.37631e-16
9.37897e-16
9.37483e-16
9.35741e-16
9.31309e-16
9.21288e-16
2.83452e-16
6.48158e-16
8.35105e-16
8.75302e-16
8.86137e-16
8.92832e-16
8.97779e-16
9.01832e-16
9.05443e-16
9.08906e-16
9.12387e-16
9.15651e-16
9.18568e-16
9.21158e-16
9.23468e-16
9.25541e-16
9.27413e-16
9.2911e-16
9.30654e-16
9.3206e-16
9.33337e-16
9.34489e-16
9.35505e-16
9.36357e-16
9.36973e-16
9.37203e-16
9.36733e-16
9.34912e-16
9.30393e-16
9.20358e-16
2.93344e-16
6.53469e-16
8.34965e-16
8.74063e-16
8.84961e-16
8.91728e-16
8.96738e-16
9.00855e-16
9.04544e-16
9.08125e-16
9.11685e-16
9.14984e-16
9.17921e-16
9.20525e-16
9.22845e-16
9.24926e-16
9.26804e-16
9.28505e-16
9.30051e-16
9.31458e-16
9.32734e-16
9.33883e-16
9.34892e-16
9.3573e-16
9.36324e-16
9.36516e-16
9.35989e-16
9.34089e-16
9.29487e-16
9.19445e-16
3.04197e-16
6.59104e-16
8.34904e-16
8.72872e-16
8.83822e-16
8.90658e-16
8.9573e-16
8.99916e-16
9.03691e-16
9.07405e-16
9.11033e-16
9.1436e-16
9.17312e-16
9.19925e-16
9.22252e-16
9.24337e-16
9.26218e-16
9.2792e-16
9.29467e-16
9.30873e-16
9.32147e-16
9.3329e-16
9.34291e-16
9.35114e-16
9.35683e-16
9.35836e-16
9.3525e-16
9.33272e-16
9.2859e-16
9.1855e-16
3.16337e-16
6.6528e-16
8.34982e-16
8.71751e-16
8.82736e-16
8.89633e-16
8.94768e-16
8.99028e-16
9.02919e-16
9.06757e-16
9.1044e-16
9.13786e-16
9.16746e-16
9.19363e-16
9.21691e-16
9.23777e-16
9.25657e-16
9.27359e-16
9.28903e-16
9.30306e-16
9.31575e-16
9.32712e-16
9.33702e-16
9.34508e-16
9.3505e-16
9.35163e-16
9.34516e-16
9.32459e-16
9.27702e-16
9.17674e-16
3.31348e-16
6.72538e-16
8.35322e-16
8.70749e-16
8.81737e-16
8.88682e-16
8.93876e-16
8.9822e-16
9.02254e-16
9.06195e-16
9.09916e-16
9.1327e-16
9.16229e-16
9.18842e-16
9.21167e-16
9.23248e-16
9.25123e-16
9.2682e-16
9.2836e-16
9.29757e-16
9.31019e-16
9.32147e-16
9.33124e-16
9.33912e-16
9.34425e-16
9.34494e-16
9.33786e-16
9.31652e-16
9.26823e-16
9.16816e-16
3.49745e-16
6.81403e-16
8.36066e-16
8.69921e-16
8.80859e-16
8.87831e-16
8.93083e-16
8.97541e-16
9.01724e-16
9.05741e-16
9.09479e-16
9.12825e-16
9.15771e-16
9.18371e-16
9.20684e-16
9.22755e-16
9.2462e-16
9.26307e-16
9.27838e-16
9.29227e-16
9.3048e-16
9.31596e-16
9.32557e-16
9.33324e-16
9.33805e-16
9.33829e-16
9.33059e-16
9.30848e-16
9.25953e-16
9.15976e-16
3.79042e-16
6.93854e-16
8.37624e-16
8.69438e-16
8.80224e-16
8.8718e-16
8.9248e-16
8.97057e-16
9.01349e-16
9.05406e-16
9.09136e-16
9.12455e-16
9.15373e-16
9.1795e-16
9.20242e-16
9.22295e-16
9.24145e-16
9.25819e-16
9.27337e-16
9.28713e-16
9.29954e-16
9.31056e-16
9.32e-16
9.32742e-16
9.3319e-16
9.33166e-16
9.32332e-16
9.30045e-16
9.25089e-16
9.15154e-16
4.20228e-16
7.11171e-16
8.40255e-16
8.69383e-16
8.79874e-16
8.86778e-16
8.9216e-16
8.96837e-16
9.01179e-16
9.05229e-16
9.08915e-16
9.12182e-16
9.15054e-16
9.17593e-16
9.19853e-16
9.21879e-16
9.23706e-16
9.2536e-16
9.26861e-16
9.2822e-16
9.29444e-16
9.30528e-16
9.31451e-16
9.32165e-16
9.32576e-16
9.32503e-16
9.31603e-16
9.29242e-16
9.24229e-16
9.14343e-16
4.98175e-16
7.38311e-16
8.45039e-16
8.70315e-16
8.80201e-16
8.86894e-16
8.92212e-16
8.96878e-16
9.01193e-16
9.05184e-16
9.0879e-16
9.11981e-16
9.14791e-16
9.17278e-16
9.19497e-16
9.21489e-16
9.23288e-16
9.24918e-16
9.26397e-16
9.27737e-16
9.28942e-16
9.30005e-16
9.30905e-16
9.3159e-16
9.31962e-16
9.31837e-16
9.30873e-16
9.2844e-16
9.23379e-16
9.13554e-16
4.90289e-16
7.16657e-16
8.31166e-16
8.65026e-16
8.77526e-16
8.84963e-16
8.90618e-16
8.95487e-16
8.99945e-16
9.04051e-16
9.0776e-16
9.11043e-16
9.1393e-16
9.16482e-16
9.18755e-16
9.20792e-16
9.2263e-16
9.24293e-16
9.25801e-16
9.27166e-16
9.28394e-16
9.29477e-16
9.30394e-16
9.31094e-16
9.31478e-16
9.31361e-16
9.30397e-16
9.2795e-16
9.22847e-16
9.12922e-16
4.82811e-16
7.05214e-16
8.22417e-16
8.60818e-16
8.7516e-16
8.8322e-16
8.89153e-16
8.94181e-16
8.98747e-16
9.02944e-16
9.06738e-16
9.10102e-16
9.13061e-16
9.15674e-16
9.17999e-16
9.20081e-16
9.21957e-16
9.23653e-16
9.2519e-16
9.26582e-16
9.27832e-16
9.28936e-16
9.2987e-16
9.30586e-16
9.30984e-16
9.30875e-16
9.29913e-16
9.27455e-16
9.22312e-16
9.12291e-16
4.74245e-16
6.96678e-16
8.16008e-16
8.57302e-16
8.72984e-16
8.81562e-16
8.87744e-16
8.92919e-16
8.97589e-16
9.01877e-16
9.05756e-16
9.09195e-16
9.1222e-16
9.14889e-16
9.17261e-16
9.19384e-16
9.21296e-16
9.23023e-16
9.24588e-16
9.26004e-16
9.27276e-16
9.28399e-16
9.29351e-16
9.30081e-16
9.30491e-16
9.30391e-16
9.2943e-16
9.2696e-16
9.21779e-16
9.11664e-16
4.65868e-16
6.90153e-16
8.11062e-16
8.54303e-16
8.70982e-16
8.79995e-16
8.864e-16
8.91712e-16
8.96476e-16
9.00841e-16
9.04791e-16
9.083e-16
9.11385e-16
9.14107e-16
9.16524e-16
9.18687e-16
9.20633e-16
9.22391e-16
9.23983e-16
9.25422e-16
9.26716e-16
9.27858e-16
9.28827e-16
9.29573e-16
9.29995e-16
9.29904e-16
9.28945e-16
9.26464e-16
9.21244e-16
9.11038e-16
4.5753e-16
6.84499e-16
8.0688e-16
8.51607e-16
8.69086e-16
8.78477e-16
8.85089e-16
8.90532e-16
8.9539e-16
8.99828e-16
9.03846e-16
9.0742e-16
9.10562e-16
9.13333e-16
9.15794e-16
9.17994e-16
9.19973e-16
9.2176e-16
9.23378e-16
9.24841e-16
9.26156e-16
9.27317e-16
9.28304e-16
9.29065e-16
9.29499e-16
9.29416e-16
9.2846e-16
9.25967e-16
9.2071e-16
9.10414e-16
4.49367e-16
6.79413e-16
8.03182e-16
8.49121e-16
8.67269e-16
8.76999e-16
8.83806e-16
8.89377e-16
8.94325e-16
8.98835e-16
9.02917e-16
9.06551e-16
9.09747e-16
9.12565e-16
9.15067e-16
9.17303e-16
9.19314e-16
9.2113e-16
9.22774e-16
9.2426e-16
9.25596e-16
9.26776e-16
9.2778e-16
9.28556e-16
9.29003e-16
9.28929e-16
9.27974e-16
9.2547e-16
9.20176e-16
9.09791e-16
4.41377e-16
6.74671e-16
7.99789e-16
8.46774e-16
8.65508e-16
8.7555e-16
8.82543e-16
8.88238e-16
8.93277e-16
8.97857e-16
9.02e-16
9.05692e-16
9.08939e-16
9.11802e-16
9.14343e-16
9.16614e-16
9.18657e-16
9.20501e-16
9.2217e-16
9.23679e-16
9.25035e-16
9.26235e-16
9.27255e-16
9.28047e-16
9.28506e-16
9.28441e-16
9.27488e-16
9.24974e-16
9.19642e-16
9.0917e-16
4.33565e-16
6.7017e-16
7.96605e-16
8.44529e-16
8.63791e-16
8.74123e-16
8.81297e-16
8.87113e-16
8.92241e-16
8.96891e-16
9.01094e-16
9.04842e-16
9.08138e-16
9.11043e-16
9.13623e-16
9.15928e-16
9.18001e-16
9.19873e-16
9.21566e-16
9.23098e-16
9.24476e-16
9.25694e-16
9.26732e-16
9.27538e-16
9.2801e-16
9.27954e-16
9.27003e-16
9.24479e-16
9.1911e-16
9.0855e-16
4.25924e-16
6.65846e-16
7.9357e-16
8.42358e-16
8.62107e-16
8.72716e-16
8.80064e-16
8.86e-16
8.91215e-16
8.95935e-16
9.00197e-16
9.03998e-16
9.07341e-16
9.10289e-16
9.12905e-16
9.15244e-16
9.17347e-16
9.19246e-16
9.20964e-16
9.22519e-16
9.23916e-16
9.25153e-16
9.26208e-16
9.2703e-16
9.27515e-16
9.27467e-16
9.2652e-16
9.23986e-16
9.18578e-16
9.07931e-16
4.18444e-16
6.61659e-16
7.90646e-16
8.40245e-16
8.60451e-16
8.71326e-16
8.78843e-16
8.84897e-16
8.90199e-16
8.94988e-16
8.99309e-16
9.03161e-16
9.0655e-16
9.09538e-16
9.12191e-16
9.14563e-16
9.16695e-16
9.1862e-16
9.20363e-16
9.2194e-16
9.23358e-16
9.24614e-16
9.25686e-16
9.26522e-16
9.2702e-16
9.26982e-16
9.26039e-16
9.23493e-16
9.18047e-16
9.07314e-16
4.11115e-16
6.57584e-16
7.8781e-16
8.38179e-16
8.5882e-16
8.6995e-16
8.77633e-16
8.83803e-16
8.89192e-16
8.94049e-16
8.98428e-16
9.02331e-16
9.05764e-16
9.08791e-16
9.1148e-16
9.13883e-16
9.16044e-16
9.17996e-16
9.19763e-16
9.21362e-16
9.22801e-16
9.24075e-16
9.25164e-16
9.26016e-16
9.26527e-16
9.26499e-16
9.25558e-16
9.23002e-16
9.17517e-16
9.06698e-16
4.03925e-16
6.53604e-16
7.85046e-16
8.36151e-16
8.57208e-16
8.68587e-16
8.76433e-16
8.82717e-16
8.88193e-16
8.93118e-16
8.97553e-16
9.01505e-16
9.04982e-16
9.08048e-16
9.10771e-16
9.13206e-16
9.15396e-16
9.17374e-16
9.19165e-16
9.20786e-16
9.22245e-16
9.23538e-16
9.24644e-16
9.25511e-16
9.26036e-16
9.26017e-16
9.25079e-16
9.22511e-16
9.16987e-16
9.06084e-16
3.96865e-16
6.49707e-16
7.82341e-16
8.34157e-16
8.55616e-16
8.67236e-16
8.75244e-16
8.81643e-16
8.87203e-16
8.92195e-16
8.96686e-16
9.00685e-16
9.04204e-16
9.07308e-16
9.10065e-16
9.12531e-16
9.14749e-16
9.16753e-16
9.18568e-16
9.20211e-16
9.2169e-16
9.23001e-16
9.24124e-16
9.25008e-16
9.25546e-16
9.25537e-16
9.246e-16
9.2202e-16
9.16458e-16
9.05471e-16
3.89926e-16
6.45882e-16
7.79688e-16
8.32191e-16
8.5404e-16
8.659e-16
8.74067e-16
8.80578e-16
8.86221e-16
8.91278e-16
8.95824e-16
8.9987e-16
9.03431e-16
9.06572e-16
9.09363e-16
9.11859e-16
9.14105e-16
9.16134e-16
9.17972e-16
9.19637e-16
9.21136e-16
9.22466e-16
9.23607e-16
9.24506e-16
9.25057e-16
9.25058e-16
9.24123e-16
9.21531e-16
9.15929e-16
9.04859e-16
3.831e-16
6.42124e-16
7.7708e-16
8.30252e-16
8.52482e-16
8.64577e-16
8.729e-16
8.79521e-16
8.85247e-16
8.9037e-16
8.94968e-16
8.9906e-16
9.02661e-16
9.05839e-16
9.08662e-16
9.11189e-16
9.13462e-16
9.15517e-16
9.17378e-16
9.19064e-16
9.20583e-16
9.21933e-16
9.23091e-16
9.24006e-16
9.2457e-16
9.24579e-16
9.23646e-16
9.21042e-16
9.154e-16
9.04249e-16
3.76378e-16
6.38425e-16
7.74513e-16
8.28336e-16
8.5094e-16
8.63266e-16
8.71743e-16
8.78475e-16
8.84282e-16
8.89467e-16
8.94118e-16
8.98255e-16
9.01895e-16
9.05109e-16
9.07965e-16
9.10521e-16
9.12822e-16
9.14901e-16
9.16786e-16
9.18493e-16
9.20033e-16
9.21401e-16
9.22576e-16
9.23507e-16
9.24084e-16
9.24102e-16
9.2317e-16
9.20553e-16
9.14872e-16
9.0364e-16
3.69756e-16
6.34781e-16
7.71983e-16
8.26442e-16
8.49413e-16
8.61966e-16
8.70596e-16
8.77436e-16
8.83323e-16
8.88571e-16
8.93272e-16
8.97453e-16
9.01133e-16
9.04382e-16
9.0727e-16
9.09856e-16
9.12183e-16
9.14287e-16
9.16195e-16
9.17924e-16
9.19484e-16
9.20871e-16
9.22064e-16
9.23009e-16
9.23599e-16
9.23626e-16
9.22695e-16
9.20065e-16
9.14345e-16
9.03032e-16
3.63226e-16
6.31188e-16
7.69487e-16
8.24569e-16
8.479e-16
8.60676e-16
8.6946e-16
8.76405e-16
8.8237e-16
8.8768e-16
8.92432e-16
8.96656e-16
9.00374e-16
9.03658e-16
9.06578e-16
9.09192e-16
9.11546e-16
9.13675e-16
9.15606e-16
9.17357e-16
9.18937e-16
9.20342e-16
9.21552e-16
9.22513e-16
9.23115e-16
9.23151e-16
9.22221e-16
9.19578e-16
9.13818e-16
9.02426e-16
3.56783e-16
6.27643e-16
7.67021e-16
8.22716e-16
8.464e-16
8.59398e-16
8.68331e-16
8.75382e-16
8.81424e-16
8.86794e-16
8.91596e-16
8.95863e-16
8.99619e-16
9.02937e-16
9.05888e-16
9.08531e-16
9.10911e-16
9.13065e-16
9.15019e-16
9.16791e-16
9.18391e-16
9.19815e-16
9.21042e-16
9.22018e-16
9.22633e-16
9.22676e-16
9.21747e-16
9.19091e-16
9.13291e-16
9.01821e-16
3.50423e-16
6.24142e-16
7.64586e-16
8.20881e-16
8.44912e-16
8.58129e-16
8.67211e-16
8.74364e-16
8.80484e-16
8.85913e-16
8.90764e-16
8.95074e-16
8.98867e-16
9.02219e-16
9.05201e-16
9.07872e-16
9.10279e-16
9.12457e-16
9.14434e-16
9.16228e-16
9.17847e-16
9.1929e-16
9.20533e-16
9.21524e-16
9.22151e-16
9.22203e-16
9.21274e-16
9.18604e-16
9.12765e-16
9.01217e-16
3.44143e-16
6.20683e-16
7.62177e-16
8.19064e-16
8.43436e-16
8.56871e-16
8.66098e-16
8.73354e-16
8.79549e-16
8.85038e-16
8.89937e-16
8.94288e-16
8.98119e-16
9.01504e-16
9.04517e-16
9.07216e-16
9.09648e-16
9.11851e-16
9.13851e-16
9.15666e-16
9.17305e-16
9.18766e-16
9.20026e-16
9.21031e-16
9.2167e-16
9.2173e-16
9.20802e-16
9.18118e-16
9.12239e-16
9.00614e-16
3.37937e-16
6.17263e-16
7.59795e-16
8.17263e-16
8.41971e-16
8.55621e-16
8.64992e-16
8.72349e-16
8.7862e-16
8.84167e-16
8.89115e-16
8.93507e-16
8.97374e-16
9.00792e-16
9.03835e-16
9.06562e-16
9.0902e-16
9.11247e-16
9.13269e-16
9.15105e-16
9.16764e-16
9.18243e-16
9.19519e-16
9.20539e-16
9.21191e-16
9.21258e-16
9.20331e-16
9.17633e-16
9.11714e-16
9.00013e-16
3.31803e-16
6.1388e-16
7.57437e-16
8.15477e-16
8.40517e-16
8.5438e-16