# vtk DataFile Version 2.0
track0
ASCII
DATASET POLYDATA
POINTS 12278 float
-0.0205 0.001 1e-05
-0.02052 0.000999216 1e-05
-0.02054 0.000998592 1e-05
-0.02056 0.000998126 1e-05
-0.02058 0.000997818 1e-05
-0.0206 0.000997665 1e-05
-0.0205 0.00367778 1e-05
-0.02052 0.00367703 1e-05
-0.02054 0.00367643 1e-05
-0.02056 0.00367599 1e-05
-0.02058 0.00367569 1e-05
-0.0206 0.00367554 1e-05
-0.0205 0.00635556 1e-05
-0.02052 0.00635527 1e-05
-0.02054 0.00635505 1e-05
-0.02056 0.00635488 1e-05
-0.02058 0.00635476 1e-05
-0.0206 0.00635471 1e-05
-0.0205 0.00903333 1e-05
-0.02052 0.00903311 1e-05
-0.02054 0.00903293 1e-05
-0.02056 0.0090328 1e-05
-0.02058 0.00903271 1e-05
-0.0206 0.00903266 1e-05
-0.0205 0.0117111 1e-05
-0.02052 0.0117111 1e-05
-0.02054 0.011711 1e-05
-0.02056 0.011711 1e-05
-0.02058 0.011711 1e-05
-0.0206 0.011711 1e-05
-0.0205 0.0143889 1e-05
-0.02052 0.014389 1e-05
-0.02054 0.014389 1e-05
-0.02056 0.0143891 1e-05
-0.02058 0.0143891 1e-05
-0.0206 0.0143891 1e-05
-0.0205 0.0170667 1e-05
-0.02052 0.017067 1e-05
-0.02054 0.0170672 1e-05
-0.02056 0.0170674 1e-05
-0.02058 0.0170675 1e-05
-0.0206 0.0170676 1e-05
-0.0205 0.0197444 1e-05
-0.02052 0.019745 1e-05
-0.02054 0.0197454 1e-05
-0.02056 0.0197457 1e-05
-0.02058 0.0197459 1e-05
-0.0206 0.019746 1e-05
-0.0205 0.0224222 1e-05
-0.02052 0.022423 1e-05
-0.02054 0.0224236 1e-05
-0.02056 0.0224241 1e-05
-0.02058 0.0224244 1e-05
-0.0206 0.0224245 1e-05
-0.0205 0.0251 1e-05
-0.02052 0.0251003 1e-05
-0.02054 0.0251005 1e-05
-0.02056 0.0251007 1e-05
-0.02058 0.0251008 1e-05
-0.0206 0.0251008 1e-05
-0.0205 0.001 1e-05
-0.0203632 0.00100536 1e-05
-0.0202266 0.00101331 1e-05
-0.0200901 0.00102296 1e-05
-0.0200427 0.00102682 1e-05
-0.0198376 0.00104418 1e-05
-0.0196338 0.00107322 1e-05
-0.0194327 0.00111734 1e-05
-0.0192368 0.00118024 1e-05
-0.0190172 0.00124951 1e-05
-0.0189002 0.00128348 1e-05
-0.0187827 0.00131598 1e-05
-0.0186649 0.001347 1e-05
-0.0185469 0.001377 1e-05
-0.0183807 0.00141936 1e-05
-0.0182041 0.00146458 1e-05
-0.0180267 0.00150692 1e-05
-0.0178487 0.0015464 1e-05
-0.0176703 0.00158389 1e-05
-0.0174976 0.00161991 1e-05
-0.0172846 0.00166394 1e-05
-0.0170715 0.00170741 1e-05
-0.0168583 0.00175029 1e-05
-0.0166449 0.00179219 1e-05
-0.0163945 0.00184007 1e-05
-0.0163234 0.00185324 1e-05
-0.0162522 0.00186629 1e-05
-0.016181 0.00187921 1e-05
-0.0161097 0.00189201 1e-05
-0.0160387 0.0019046 1e-05
-0.0157586 0.0019535 1e-05
-0.0154779 0.00199931 1e-05
-0.0151968 0.00204225 1e-05
-0.0149154 0.00208283 1e-05
-0.0146381 0.00212134 1e-05
-0.0143838 0.00215527 1e-05
-0.0141293 0.00218766 1e-05
-0.0138747 0.00221855 1e-05
-0.0136198 0.00224797 1e-05
-0.0132934 0.00228369 1e-05
-0.0132791 0.00228515 1e-05
-0.0132648 0.0022866 1e-05
-0.0132504 0.00228805 1e-05
-0.0132361 0.0022895 1e-05
-0.0132214 0.00229098 1e-05
-0.0129776 0.00231543 1e-05
-0.0127337 0.00233865 1e-05
-0.0124897 0.00236061 1e-05
-0.0122456 0.00238129 1e-05
-0.0120025 0.00240058 1e-05
-0.0117547 0.00241909 1e-05
-0.0115067 0.00243627 1e-05
-0.0112587 0.00245231 1e-05
-0.0110106 0.00246734 1e-05
-0.0107632 0.00248136 1e-05
-0.0105252 0.00249391 1e-05
-0.0102872 0.00250547 1e-05
-0.0100491 0.00251602 1e-05
-0.00981105 0.00252575 1e-05
-0.00957337 0.00253471 1e-05
-0.00934491 0.00254261 1e-05
-0.00911643 0.00254974 1e-05
-0.00888792 0.0025561 1e-05
-0.0086594 0.00256171 1e-05
-0.00843108 0.00256668 1e-05
-0.00821175 0.00257084 1e-05
-0.00799241 0.00257439 1e-05
-0.00777306 0.00257731 1e-05
-0.0075537 0.00257952 1e-05
-0.00733443 0.00258114 1e-05
-0.00712387 0.00258212 1e-05
-0.0069133 0.00258255 1e-05
-0.00670273 0.00258243 1e-05
-0.00649216 0.00258162 1e-05
-0.0062816 0.00258017 1e-05
-0.00607944 0.00257819 1e-05
-0.0058773 0.00257565 1e-05
-0.00567516 0.00257256 1e-05
-0.00547303 0.00256874 1e-05
-0.00527083 0.00256419 1e-05
-0.00507675 0.00255912 1e-05
-0.00488269 0.00255342 1e-05
-0.00468865 0.0025471 1e-05
-0.00449464 0.00253997 1e-05
-0.00430044 0.0025319 1e-05
-0.00411412 0.00252328 1e-05
-0.00392784 0.00251388 1e-05
-0.00374159 0.00250368 1e-05
-0.0035554 0.00249254 1e-05
-0.00336883 0.00248015 1e-05
-0.00318995 0.00246711 1e-05
-0.00301115 0.00245299 1e-05
-0.00283245 0.00243774 1e-05
-0.00265386 0.0024212 1e-05
-0.00247443 0.00240313 1e-05
-0.0023027 0.00238425 1e-05
-0.00213114 0.00236383 1e-05
-0.00195982 0.00234153 1e-05
-0.00178875 0.00231737 1e-05
-0.00161577 0.00229104 1e-05
-0.00161569 0.00229103 1e-05
-0.00161561 0.00229102 1e-05
-0.00161553 0.002291 1e-05
-0.00161545 0.00229099 1e-05
-0.00161537 0.00229098 1e-05
-0.00145058 0.00226407 1e-05
-0.00128619 0.00223481 1e-05
-0.00112223 0.00220325 1e-05
-0.000958711 0.00216946 1e-05
-0.000791418 0.00213235 1e-05
-0.000633135 0.00209424 1e-05
-0.000475556 0.00205331 1e-05
-0.000318719 0.00200962 1e-05
-0.000162835 0.00196265 1e-05
0 0.0019095 1e-05
3.73285e-05 0.0018963 1e-05
7.4557e-05 0.00188282 1e-05
0.000111687 0.00186908 1e-05
0.00014872 0.00185508 1e-05
0.000179022 0.00184337 1e-05
0.000248895 0.00181593 1e-05
0.000318357 0.00178747 1e-05
0.000387394 0.00175798 1e-05
0.00045599 0.00172749 1e-05
0.000528387 0.0016941 1e-05
0.000634886 0.00164312 1e-05
0.000740278 0.00158989 1e-05
0.00084451 0.00153442 1e-05
0.00094762 0.0014769 1e-05
0.00101982 0.00143468 1e-05
0.00102803 0.00142972 1e-05
0.00103624 0.00142474 1e-05
0.00104443 0.00141975 1e-05
0.00105261 0.00141474 1e-05
0.00106088 0.00140966 1e-05
0.00116821 0.00134347 1e-05
0.00127404 0.00127491 1e-05
0.00137827 0.00120395 1e-05
0.00148099 0.00113082 1e-05
0.00159662 0.00104511 1e-05
0.0015968 0.00104497 1e-05
0.00159698 0.00104483 1e-05
0.00159716 0.00104469 1e-05
0.00159734 0.00104455 1e-05
0.00159752 0.00104441 1e-05
0.00169216 0.000970852 1e-05
0.00178541 0.000895528 1e-05
0.00187717 0.000818407 1e-05
0.00196752 0.000739633 1e-05
0.00203791 0.000676366 1e-05
0.00205799 0.000657859 1e-05
0.00207799 0.000639262 1e-05
0.00209791 0.000620576 1e-05
0.00211777 0.000601826 1e-05
0.00213833 0.000582292 1e-05
0.00219144 0.000531492 1e-05
0.00224406 0.000480176 1e-05
0.00229615 0.000428336 1e-05
0.00234772 0.000375965 1e-05
0.002394 0.000328254 1e-05
0.00245187 0.000267771 1e-05
0.0025091 0.000206688 1e-05
0.00256571 0.000145021 1e-05
0.0026218 8.28873e-05 1e-05
0.00268334 1.35351e-05 1e-05
0.00268569 1.08281e-05 1e-05
0.00268805 8.12008e-06 1e-05
0.0026904 5.41106e-06 1e-05
0.00269275 2.70105e-06 1e-05
0.00269509 0 1e-05
0.00275899 -7.37367e-05 1e-05
0.00282227 -0.000148005 1e-05
0.00288491 -0.000222813 1e-05
0.00294688 -0.000298172 1e-05
0.00300395 -0.000368654 1e-05
0.00304968 -0.000425961 1e-05
0.0030951 -0.000483515 1e-05
0.00314021 -0.000541311 1e-05
0.00318506 -0.000599302 1e-05
0.00323259 -0.00066131 1e-05
0.00325061 -0.000685067 1e-05
0.00326858 -0.000708863 1e-05
0.0032865 -0.000732699 1e-05
0.00330437 -0.000756575 1e-05
0.00332189 -0.000780089 1e-05
0.00339004 -0.000871876 1e-05
0.00345758 -0.000964106 1e-05
0.00352449 -0.00105679 1e-05
0.00359087 -0.00114986 1e-05
0.00365373 -0.00123896 1e-05
0.00368021 -0.00127688 1e-05
0.00370661 -0.00131485 1e-05
0.00373293 -0.00135288 1e-05
0.0037592 -0.00139095 1e-05
0.00378611 -0.00143005 1e-05
0.00383007 -0.00149413 1e-05
0.00387381 -0.00155836 1e-05
0.00391734 -0.00162274 1e-05
0.00396064 -0.00168727 1e-05
0.00400277 -0.00175043 1e-05
0.00407101 -0.0018533 1e-05
0.00413882 -0.00195644 1e-05
0.00420621 -0.00205986 1e-05
0.00427331 -0.00216346 1e-05
0.00434393 -0.00227317 1e-05
0.00434996 -0.0022826 1e-05
0.00435598 -0.00229203 1e-05
0.004362 -0.00230146 1e-05
0.00436801 -0.00231089 1e-05
0.00437401 -0.0023203 1e-05
0.00445486 -0.00244725 1e-05
0.00453526 -0.00257448 1e-05
0.00461526 -0.00270197 1e-05
0.0046949 -0.00282967 1e-05
0.00477278 -0.00295497 1e-05
0.00479944 -0.00299802 1e-05
0.00482608 -0.00304109 1e-05
0.00485269 -0.00308417 1e-05
0.00487929 -0.00312726 1e-05
0.00490609 -0.00317066 1e-05
0.00496671 -0.00326886 1e-05
0.00502718 -0.00336714 1e-05
0.0050875 -0.00346552 1e-05
0.00514769 -0.00356398 1e-05
0.00520732 -0.00366161 1e-05
0.00526038 -0.00374853 1e-05
0.0053134 -0.00383549 1e-05
0.00536638 -0.00392247 1e-05
0.00541939 -0.00400943 1e-05
0.00547262 -0.00409665 1e-05
0.00551559 -0.00416694 1e-05
0.00555852 -0.00423726 1e-05
0.00560141 -0.00430759 1e-05
0.00564429 -0.00437794 1e-05
0.00568711 -0.00444811 1e-05
0.0057584 -0.00456487 1e-05
0.00582973 -0.00468159 1e-05
0.00590111 -0.00479829 1e-05
0.00597263 -0.0049149 1e-05
0.00604356 -0.00503008 1e-05
0.00607981 -0.00508872 1e-05
0.00611607 -0.00514735 1e-05
0.00615233 -0.00520597 1e-05
0.00618862 -0.00526458 1e-05
0.00622502 -0.00532326 1e-05
0.0063038 -0.00545002 1e-05
0.00638278 -0.00557667 1e-05
0.00646194 -0.0057032 1e-05
0.00654138 -0.00582955 1e-05
0.00661893 -0.00595209 1e-05
0.00666283 -0.00602101 1e-05
0.00670679 -0.0060899 1e-05
0.0067508 -0.00615875 1e-05
0.00679489 -0.00622755 1e-05
0.00683936 -0.00629671 1e-05
0.00691125 -0.00640811 1e-05
0.00698338 -0.00651934 1e-05
0.00705578 -0.00663041 1e-05
0.00712846 -0.00674128 1e-05
0.00719878 -0.00684773 1e-05
0.00726948 -0.00695399 1e-05
0.0073404 -0.00706011 1e-05
0.00741155 -0.00716607 1e-05
0.007483 -0.00727182 1e-05
0.00755599 -0.00737909 1e-05
0.00760142 -0.00744538 1e-05
0.00764698 -0.00751157 1e-05
0.00769266 -0.00757768 1e-05
0.00773847 -0.0076437 1e-05
0.00778313 -0.00770771 1e-05
0.00790091 -0.00787567 1e-05
0.00801946 -0.0080431 1e-05
0.00813878 -0.00820996 1e-05
0.0082591 -0.00837611 1e-05
0.00837203 -0.00853002 1e-05
0.00837975 -0.00854039 1e-05
0.00838747 -0.00855076 1e-05
0.00839519 -0.00856113 1e-05
0.00840292 -0.0085715 1e-05
0.00841067 -0.00858189 1e-05
0.00852164 -0.00873051 1e-05
0.00863343 -0.00887851 1e-05
0.00874606 -0.00902587 1e-05
0.00885956 -0.00917256 1e-05
0.00896551 -0.00930763 1e-05
0.00903014 -0.00938897 1e-05
0.00909504 -0.0094701 1e-05
0.0091602 -0.00955102 1e-05
0.00922566 -0.00963169 1e-05
0.0092933 -0.00971439 1e-05
0.00934736 -0.00977996 1e-05
0.00940161 -0.00984538 1e-05
0.00945606 -0.00991063 1e-05
0.00951071 -0.00997572 1e-05
0.0095636 -0.0100383 1e-05
[...]
POINT_DATA 12278
 FIELD attributes 2
p 1 12278 float
177013 177095 177167 177230 177284 177329
108946 108964 108981 108995 109007 109017
87752.9 87762.4 87771.8 87780.9 87789.9 87798.3
79935.1 79941.4 79947.6 79953.8 79959.8 79965.8
77144.2 77153.4 77162.7 77171.9 77181.1 77190.3
77561.6 77575.2 77588.7 77602.3 77615.9 77629.4
81094.8 81107.2 81119.4 81131.5 81143.4 81155.2
90921.2 90941 90960 90978.3 90995.9 91012.8
117353 117386 117416 117444 117470 117494
215472 215282 215090 214896 214700 214502
177013 173407 169080 164502 162836 158904 155521 152871 144705 134664 129222 123793 119855 119244 118392 112347 106447 102326 101430 100563 99581.2 98599 97172.3 95704 93988.4 93621.9 93254.9 92887.4 92406.4 91908.7 89989.1 88185.2 86671.2 85883.9 85107.1 84421.3 83756.6 83106.8 82455 81621.1 81586.1 81557.2 81529.2 81501.2 81472.3 80939.6 80407.3 79875.5 79344.2 78919.1 78492.9 78083.7 77686 77310.4 76944.4 76594.5 76244.2 75920.5 75619 75317.9 75028.5 74738.8 74460.3 74197.5 73934.9 73681.2 73427.5 73177.4 72941.3 72705.2 72476.3 72247.4 72016.9 71797.4 71578.2 71364.6 71151 70932.4 70721.6 70510.9 70303.7 70096.8 69883.9 69671.4 69459.3 69247.4 69035.9 68820.8 68592.7 68365.1 68132.2 67896.5 67652.5 67399.8 67133.9 66853.6 66539.9 66227.7 65917.1 65604.1 65603.9 65603.7 65603.5 65603.3 65603.1 65211.8 64826.2 64446.3 64048.1 63567.9 63052.4 62542.7 61841.6 61068.5 60255.3 60007.2 59769.3 59542.3 59315.9 59130.7 58573.6 58014.4 57453.1 56979.7 56511.3 55906.7 55304 54764.2 54223.1 53839 53780.7 53722.4 53667 53619.3 53571 53017.8 52457.4 51939.4 51467 50922 50920.9 50919.7 50918.7 50917.8 50917 50489.9 50055.4 49652.9 49317.5 49048.6 48949.2 48849.5 48778.5 48708.8 48636.1 48447.8 48257 48064.5 47920.1 47788.1 47615.3 47446.5 47306.8 47165.1 47005.7 46999.3 46993 46986.6 46980.9 46975.4 46870 46757.8 46643 46529.7 46422.8 46387.2 46350.4 46310.8 46270.5 46226.7 46206.6 46186.3 46165.9 46144.8 46123.7 46098.3 46071.6 46034.5 45992.2 45950.7 45953.1 45955.2 45954.5 45953.7 45952.8 45941.5 45929.8 45917.7 45902.6 45887.4 45897.2 45906.3 45910.9 45914.9 45918.6 45917.7 45916.9 45916 45915 45913.9 45927.5 45941.1 45953.8 45964.5 45974.8 45985.1 45995.4 46005.2 46014.9 46024.7 46036.2 46047.6 46058.8 46069.9 46080.8 46099.3 46117.7 46136.2 46154.7 46173.3 46181.9 46190.5 46199.1 46208.3 46217.4 46240.1 46262.8 46286.2 46310.1 46333.9 46341.3 46348.7 46356.4 46364.7 46373 46396.2 46419.5 46443.7 46468.9 46493.7 46502.6 46511.6 46521.2 46531.4 46541.8 46561.4 46581.2 46601.6 46623.5 46644.7 46658.6 46672.6 46688.2 46704.6 46721.3 46732.8 46744.4 46756.1 46768.8 46781.1 46803.1 46825.3 46850.7 46876.9 46902.8 46904 46905.1 46906.5 46907.8 46909.2 46930.4 46951.8 46973.6 46997.5 47019.8 47029.4 47039 47050 47061.1 47072.6 47082.2 47092 47101.7 47112.2 47122.3 47139.5 47156.8 47175.8 47195.6 47215 47217.6 47220.2 47223.2 47226.1 47229.1 47243.5 47257.9 47272.4 47288 47302.9 47316.7 47330.9 47346.4 47362 47378.9 47379 47379 47379.1 47379.2 47379.2 47393.8 47408.6 47423.4 47439.3 47454.5 47466.6 47479.2 47492.8 47506.5 47519.6 47520.2 47520.9 47521.6 47522.2 47522.9 47534.7 47546.6 47558.5 47571.1 47583.5 47593.8 47604.2 47615.8 47628 47640 47644.1 47648.5 47653.1 47657.8 47662.7 47668.6 47674.4 47680.3 47686.4 47692.8 47701.6 47710.7 47720.5 47731.4 47741.8 47749.4 47757.5 47766.4 47775.4 47784.6 47786.7 47789.1 47791.7 47794.2 47796.9 47802.2 47807.6 47813 47818.5 47824.5 47830.7 47837.3 47844.2 47852.3 47860.1 47865.2 47870.2 47876.5 47883.1 47889.9 47893.5 47898.1 47902.8 47907.5 47912.8 47913 47913.3 47913.5 47913.7 47914 47918.2 47922.3 47926.4 47930.6 47935.6 47938 47940.5 47943.5 47947.4 47951.3 47952.4 47953.5 47955.4 47958.2 47960.9 47960.9 47961.4 47962.2 47963.1 47964.6 47963.7 47963.5 47963.2 47962.9 47962.5 47962.5 47962.5 47962.4 47962.4 47962.5 47961.1 47959.8 47958.4 47957 47956.3 47953.1 47950.5 47948 47945.7 47943.9 47939.5 47935.2 47931.5 47928.5 47925.4 47919.9 47914.4 47909.5 47905.2 47900.9 47894.3 47887.7 47881.6 47875.9 47870.5 47862.7 47855.3 47848.1 47840.8 47834.2 47825.5 47817.1 47808.7 47800.3 47792.2 47783.7 47775.2 47766.8 47758.3 47748.4 47747.7 47747 47746.2 47745.5 47744.8 47734.4 47723.9 47713.5 47703 47692.7 47680.9 47669.4 47658 47646.4 47635.2 47622.2 47609.7 47597.2 47584.7 47572.4 47558.5 47544.9 47531.4 47518 47504.7 47489.9 47475.2 47460.8 47446.5 47432.2 47416.5 47400.8 47385.5 47370.3 47355.1 47338.6 47322 47305.8 47289.7 47273.6 47256.3 47238.9 47221.8 47204.8 47187.9 47169.8 47151.7 47133.7 47115.9 47098.2 47079.4 47060.6 47041.8 47023.2 47004.8 46985.3 46965.8 46946.2 46926.9 46907.7 46887.6 46867.4 46847.2 46827.1 46807.2 46786.5 46765.7 46744.9 46724.1 46703.6 46682.3 46660.9 46639.5 46618.1 46596.9 46575.1 46553.1 46531.1 46509.1 46487.4 46465 46442.5 46420 46397.5 46375.2 46352.3 46329.3 46306.3 46283.3 46260.5 46237.2 46213.7 46190.2 46166.7 46143.4 46119.6 46095.7 46071.8 46047.9 46024.1 45999.9 45975.6 45951.3 45927 45902.7 45878.1 45853.4 45828.7 45804 45779.4 45754.4 45729.4 45704.3 45679.3 45654.3 45628.9 45603.5 45578.1 45552.7 45527.4 45501.8 45476 45450.3 45424.6 45398.9 45373 45346.9 45320.9 45294.9 45268.9 45242.7 45216.4 45190.1 45163.8 45137.5 45111 45084.4 45057.8 45031.3 45004.7 44978 44951.1 44924.3 44897.5 44870.7 44843.7 44816.6 44789.6 44762.5 44735.4 44708.2 44680.9 44653.6 44626.3 44599 44571.6 44544.1 44516.6 44489.1 44461.6 44433.9 44406.2 44378.5 44350.7 44323 44295.1 44267.2 44239.3 44211.4 44183.5 44155.4 44127.3 44099.2 44071.1 44043 44014.7 43986.4 43958.1 43929.8 43901.5 43873.1 43844.6 43816.1 43787.6 43759.2 43730.5 43701.9 43673.2 43644.6 43615.9 43587.1 43558.3 43529.4 43500.6 43471.8 43442.8 43413.8 43384.8 43355.8 43326.8 43297.6 43268.4 43239.2 43210.1 43180.9 43151.6 43122.2 43092.9 43063.5 43034.2 43004.7 42975.1 42945.6 42916.1 42886.6 42856.9 42827.2 42797.5 42767.8 42738.1 42708.3 42678.4 42648.6 42618.7 42588.8 42558.8 42528.8 42498.8 42468.7 42438.7 42408.5 42378.3 42348.1 42317.9 42287.6 42257.3 42226.9 42196.5 42166.1 42135.7 42105.2 42074.6 42044 42013.5 41982.9 41952.2 41921.4 41890.7 41859.9 41829.1 41798.3 41767.3 41736.4 41705.4 41674.5 41643.4 41612.3 41581.2 41550 41518.9 41487.6 41456.3 41425 41393.7 41362.3 41330.8 41299.3 41267.8 41236.3 41204.8 41173.1 41141.4 41109.7 41078 41046.2 41014.4 40982.5 40950.5 40918.6 40886.7 40854.6 40822.5 40790.4 40758.3 40726.1 40693.8 40661.5 40629.2 40596.8 40564.5 40532 40499.4 40466.9 40434.3 40401.7 40369 40336.3 40303.5 40270.8 40237.9 40205 40172 40139 40106.1 40073 40039.9 40006.7 39973.5 39940.2 39907 39873.6 39840.2 39806.7 39773.3 39739.8 39706.2 39672.5 39638.8 39605.1 39571.4 39537.6 39503.6 39469.7 39435.8 39401.8 39367.8 39333.6 39299.4 39265.3 39231.1 39196.7 39162.3 39127.9 39093.5 39059.1 39024.5 38989.8 38955.2 38920.5 38885.8 38851 38816.1 38781.2 38746.3 38711.3 38676.2 38641.1 38605.9 38570.8 38535.5 38500.2 38464.8 38429.3 38393.9 38358.4 38322.8 38287.1 38251.5 38215.8 38180 38144.1 38108.2 38072.3 38036.3 38000.3 37964.1 37927.9 37891.7 37855.5 37819.2 37782.8 37746.3 37709.8 37673.3 37636.7 37600 37563.3 37526.5 37489.7 37452.9 37415.9 37378.9 37341.8 37304.8 37267.6 37230.4 37193.1 37155.7 37118.4 37081 37043.4 37005.8 36968.2 36930.6 36892.9 36855.1 36817.2 36779.3 36741.4 36703.4 36665.3 36627.1 36588.9 36550.7 36512.4 36474 36435.5 36397 36358.5 36319.9 36281.2 36242.5 36203.7 36164.9 36126 36087 36048 36008.9 35969.7 35930.6 35891.3 35851.9 35812.5 35773.1 35733.6 35694 35654.4 35614.7 35574.9 35535.2 35495.2 35455.3 35415.3 35375.2 35335.2 35294.9 35254.7 35214.3 35174 35133.6 35093 35052.5 35011.8 34971.2 34930.5 34889.6 34848.7 34807.8 34766.8 34725.8 34684.6 34643.4 34602.1 34560.8 34519.5 34478 34436.4 34394.9 34353.2 34311.6 34269.7 34227.9 34186 34144 34102 34059.9 34017.7 33975.5 33933.2 33890.9 33848.4 33805.9 33763.4 33720.7 33678.1 33635.3 33592.5 33549.6 33506.6 33463.7 33420.5 33377.4 33334.1 33290.8 33247.5 33204.1 33160.6 33117 33073.4 33029.7 32985.9 32942.1 32898.2 32854.2 32810.2 32766.1 32721.9 32677.7 32633.4 32589 32544.5 32500 32455.4 32410.8 32366.1 32321.3 32276.4 32231.5 32186.5 32141.4 32096.2 32051 32005.8 31960.4 31915 31869.5 31823.9 31778.3 31732.6 31686.9 31640.9 31595 31549 31503 31456.9 31410.6 31364.4 31318 31271.6 31225.2 31178.5 31131.9 31085.2 31038.4 30991.6 30944.6 30897.6 30850.6 30803.4 30756.2 30708.9 30661.5 30614.1 30566.6 30519 30471.3 30423.6 30375.8 30327.9 30280 30231.9 30183.8 30135.6 30087.3 30039.1 29990.6 29942.1 29893.5 29844.9 29796.3 29747.4 29698.5 29649.6 29600.6 29551.6 29502.3 29453.1 29403.8 29354.4 29305 29255.3 29205.7 29156 29106.2 29056.4 29006.4 28956.4 28906.3 28856.1 28805.9 28755.5 28705.1 28654.6 28604 28553.4 28502.6 28451.8 28400.9 28349.9 28298.9 28247.7 28196.5 28145.2 28093.8 28042.4 27990.8 27939.2 27887.5 27835.7 27783.9 27731.9 27679.8 27627.7 27575.5 27523.3 27470.9 27418.4 27365.9 27313.3 27260.6 27207.8 27154.9 27101.9 27048.9 26995.9 26942.6 26889.2 26835.9 26782.4 26729 26675.2 26621.5 26567.7 26513.8 26459.9 26405.8 26351.6 26297.4 26243.1 26188.8 26134.2 26079.7 26025 25970.4 25915.7 25860.7 25805.7 25750.7 25695.7 25640.6 25585.2 25529.9 25474.5 25419.2 25363.8 25308.1 25252.5 25196.9 25141.2 25085.6 25029.7 24973.9 24918.2 24862.4 24806.7 24750.8 24695 24639.3 24583.7 24528 24472.3 24417 24361.9 24306.8 24252.1 24197.4 24142.4 24087.4 24032.4 23977.1 23922.3 23873.7 23825.1 23776.4 23732.7 23683.5 23618.2 23552.7 23487.2 23412.7 23361.5 23331.1 23301 23271.3 23257.1 23252.9 23248.8 23244.6 23240.4 23238.9 23236.3 23231 23225.8 23220.5 23214.8 23187.8 23160.6 23133.2 23105.5 23061.9 22986 22917 22848 22779.2 22722.9 22671.8 22615.5 22559.1 22502.7 22440.1 22372.3 22304.2 22236.1 22168 22099.6 22028.3 21955 21881.8 21808.6 21733.2 21655 21575.2 21495.4 21415.6 21334.2 21249.9 21163.8 21077.6 20991.5 20903.5 20812.5 20719.6 20626.6 20533.6 20438.8 20340.7 20240.5 20140.2 20039.8 19937.5 19831.6 19723.4 19615.1 19506.7 19396.2 19281.9 19164.8 19047.6 18930.3 18810.5 18686.5 18559.7 18432.8 18305.8 18176.4 18042.3 17904.4 17766.2 17627.9 17486 17339 17189.3 17039.5 16889.5 16737.3 16579.5 16414.9 16250 16084.8 15913.3 15735.5 15557.4 15379.2 15201.1 15023 14838.4 14638.9 14438.5 14237.4 14022.2 13799 13585.9 13373.4 13161.4 12960.1 12751.2 12503.7 12254 12002.1 11712.8 11412.6 11157.3 10904.8 10655 10450.3 10237.7 9921.71 9598.14 9265.98 8833.3 8384.31 8071.56 7773.95 7494.36 7349.26 7198.22 6801.75 6357.28 5839.05 5089.68 4311.39 3779.23 3398.31 3250.96 3316.68 3382.98 3362.04 2777.14 1388.16 0