# vtk DataFile Version 2.0
track0
ASCII
DATASET POLYDATA
POINTS 12278 float
-0.0205 0.001 1e-05
-0.02052 0.000999216 1e-05
-0.02054 0.000998592 1e-05
-0.02056 0.000998126 1e-05
-0.02058 0.000997818 1e-05
-0.0206 0.000997665 1e-05
-0.0205 0.00367778 1e-05
-0.02052 0.00367703 1e-05
-0.02054 0.00367643 1e-05
-0.02056 0.00367599 1e-05
-0.02058 0.00367569 1e-05
-0.0206 0.00367554 1e-05
-0.0205 0.00635556 1e-05
-0.02052 0.00635527 1e-05
-0.02054 0.00635505 1e-05
-0.02056 0.00635488 1e-05
-0.02058 0.00635476 1e-05
-0.0206 0.00635471 1e-05
-0.0205 0.00903333 1e-05
-0.02052 0.00903311 1e-05
-0.02054 0.00903293 1e-05
-0.02056 0.0090328 1e-05
-0.02058 0.00903271 1e-05
-0.0206 0.00903266 1e-05
-0.0205 0.0117111 1e-05
-0.02052 0.0117111 1e-05
-0.02054 0.011711 1e-05
-0.02056 0.011711 1e-05
-0.02058 0.011711 1e-05
-0.0206 0.011711 1e-05
-0.0205 0.0143889 1e-05
-0.02052 0.014389 1e-05
-0.02054 0.014389 1e-05
-0.02056 0.0143891 1e-05
-0.02058 0.0143891 1e-05
-0.0206 0.0143891 1e-05
-0.0205 0.0170667 1e-05
-0.02052 0.017067 1e-05
-0.02054 0.0170672 1e-05
-0.02056 0.0170674 1e-05
-0.02058 0.0170675 1e-05
-0.0206 0.0170676 1e-05
-0.0205 0.0197444 1e-05
-0.02052 0.019745 1e-05
-0.02054 0.0197454 1e-05
-0.02056 0.0197457 1e-05
-0.02058 0.0197459 1e-05
-0.0206 0.019746 1e-05
-0.0205 0.0224222 1e-05
-0.02052 0.022423 1e-05
-0.02054 0.0224236 1e-05
-0.02056 0.0224241 1e-05
-0.02058 0.0224244 1e-05
-0.0206 0.0224245 1e-05
-0.0205 0.0251 1e-05
-0.02052 0.0251003 1e-05
-0.02054 0.0251005 1e-05
-0.02056 0.0251007 1e-05
-0.02058 0.0251008 1e-05
-0.0206 0.0251008 1e-05
-0.0205 0.001 1e-05
-0.0203632 0.00100536 1e-05
-0.0202266 0.00101331 1e-05
-0.0200901 0.00102296 1e-05
-0.0200427 0.00102682 1e-05
-0.0198376 0.00104418 1e-05
-0.0196338 0.00107322 1e-05
-0.0194327 0.00111734 1e-05
-0.0192368 0.00118024 1e-05
-0.0190172 0.00124951 1e-05
-0.0189002 0.00128348 1e-05
-0.0187827 0.00131598 1e-05
-0.0186649 0.001347 1e-05
-0.0185469 0.001377 1e-05
-0.0183807 0.00141936 1e-05
-0.0182041 0.00146458 1e-05
-0.0180267 0.00150692 1e-05
-0.0178487 0.0015464 1e-05
-0.0176703 0.00158389 1e-05
-0.0174976 0.00161991 1e-05
-0.0172846 0.00166394 1e-05
-0.0170715 0.00170741 1e-05
-0.0168583 0.00175029 1e-05
-0.0166449 0.00179219 1e-05
-0.0163945 0.00184007 1e-05
-0.0163234 0.00185324 1e-05
-0.0162522 0.00186629 1e-05
-0.016181 0.00187921 1e-05
-0.0161097 0.00189201 1e-05
-0.0160387 0.0019046 1e-05
-0.0157586 0.0019535 1e-05
-0.0154779 0.00199931 1e-05
-0.0151968 0.00204225 1e-05
-0.0149154 0.00208283 1e-05
-0.0146381 0.00212134 1e-05
-0.0143838 0.00215527 1e-05
-0.0141293 0.00218766 1e-05
-0.0138747 0.00221855 1e-05
-0.0136198 0.00224797 1e-05
-0.0132934 0.00228369 1e-05
-0.0132791 0.00228515 1e-05
-0.0132648 0.0022866 1e-05
-0.0132504 0.00228805 1e-05
-0.0132361 0.0022895 1e-05
-0.0132214 0.00229098 1e-05
-0.0129776 0.00231543 1e-05
-0.0127337 0.00233865 1e-05
-0.0124897 0.00236061 1e-05
-0.0122456 0.00238129 1e-05
-0.0120025 0.00240058 1e-05
-0.0117547 0.00241909 1e-05
-0.0115067 0.00243627 1e-05
-0.0112587 0.00245231 1e-05
-0.0110106 0.00246734 1e-05
-0.0107632 0.00248136 1e-05
-0.0105252 0.00249391 1e-05
-0.0102872 0.00250547 1e-05
-0.0100491 0.00251602 1e-05
-0.00981105 0.00252575 1e-05
-0.00957337 0.00253471 1e-05
-0.00934491 0.00254261 1e-05
-0.00911643 0.00254974 1e-05
-0.00888792 0.0025561 1e-05
-0.0086594 0.00256171 1e-05
-0.00843108 0.00256668 1e-05
-0.00821175 0.00257085 1e-05
-0.00799241 0.00257439 1e-05
-0.00777306 0.00257731 1e-05
-0.0075537 0.00257952 1e-05
-0.00733443 0.00258114 1e-05
-0.00712387 0.00258213 1e-05
-0.0069133 0.00258256 1e-05
-0.00670273 0.00258243 1e-05
-0.00649216 0.00258162 1e-05
-0.0062816 0.00258018 1e-05
-0.00607944 0.00257819 1e-05
-0.0058773 0.00257566 1e-05
-0.00567516 0.00257257 1e-05
-0.00547303 0.00256875 1e-05
-0.00527083 0.00256419 1e-05
-0.00507675 0.00255912 1e-05
-0.00488269 0.00255343 1e-05
-0.00468865 0.00254711 1e-05
-0.00449464 0.00253997 1e-05
-0.00430044 0.00253191 1e-05
-0.00411412 0.00252329 1e-05
-0.00392784 0.00251388 1e-05
-0.00374159 0.00250369 1e-05
-0.0035554 0.00249255 1e-05
-0.00336883 0.00248016 1e-05
-0.00318995 0.00246712 1e-05
-0.00301115 0.002453 1e-05
-0.00283245 0.00243775 1e-05
-0.00265386 0.00242121 1e-05
-0.00247443 0.00240315 1e-05
-0.0023027 0.00238426 1e-05
-0.00213114 0.00236385 1e-05
-0.00195982 0.00234155 1e-05
-0.00178875 0.00231739 1e-05
-0.00161577 0.00229106 1e-05
-0.00161567 0.00229104 1e-05
-0.00161557 0.00229103 1e-05
-0.00161547 0.00229101 1e-05
-0.00161537 0.00229099 1e-05
-0.00161527 0.00229098 1e-05
-0.0014505 0.00226407 1e-05
-0.00128613 0.00223481 1e-05
-0.00112219 0.00220326 1e-05
-0.00095869 0.00216947 1e-05
-0.000791418 0.00213237 1e-05
-0.000633135 0.00209426 1e-05
-0.000475556 0.00205333 1e-05
-0.000318719 0.00200964 1e-05
-0.000162835 0.00196267 1e-05
0 0.00190952 1e-05
3.73424e-05 0.00189632 1e-05
7.45848e-05 0.00188284 1e-05
0.000111729 0.00186909 1e-05
0.000148775 0.00185508 1e-05
0.000179086 0.00184338 1e-05
0.000248946 0.00181594 1e-05
0.000318396 0.00178748 1e-05
0.00038742 0.001758 1e-05
0.000456004 0.00172751 1e-05
0.000528387 0.00169413 1e-05
0.000634886 0.00164316 1e-05
0.000740278 0.00158992 1e-05
0.00084451 0.00153446 1e-05
0.00094762 0.00147693 1e-05
0.00101988 0.00143468 1e-05
0.00102808 0.00142973 1e-05
0.00103627 0.00142476 1e-05
0.00104445 0.00141977 1e-05
0.00105263 0.00141477 1e-05
0.00106088 0.0014097 1e-05
0.00116821 0.00134351 1e-05
0.00127404 0.00127495 1e-05
0.00137827 0.001204 1e-05
0.00148099 0.00113086 1e-05
0.00159668 0.00104511 1e-05
0.00159685 0.00104498 1e-05
0.00159702 0.00104485 1e-05
0.00159718 0.00104472 1e-05
0.00159735 0.00104459 1e-05
0.00159752 0.00104446 1e-05
0.00169218 0.000970892 1e-05
0.00178544 0.000895558 1e-05
0.00187722 0.000818426 1e-05
0.00196758 0.00073964 1e-05
0.00203797 0.000676367 1e-05
0.00205804 0.000657872 1e-05
0.00207803 0.000639288 1e-05
0.00209794 0.000620615 1e-05
0.00211778 0.000601878 1e-05
0.00213833 0.000582358 1e-05
0.00219146 0.000531545 1e-05
0.00224409 0.000480216 1e-05
0.0022962 0.000428361 1e-05
0.00234778 0.000375976 1e-05
0.00239407 0.000328255 1e-05
0.00245193 0.000267787 1e-05
0.00250915 0.000206719 1e-05
0.00256574 0.000145068 1e-05
0.00262181 8.29509e-05 1e-05
0.00268334 1.36188e-05 1e-05
0.00268571 1.0895e-05 1e-05
0.00268808 8.17025e-06 1e-05
0.00269044 5.44448e-06 1e-05
0.00269281 2.7177e-06 1e-05
0.00269517 0 1e-05
0.00275906 -7.37368e-05 1e-05
0.00282234 -0.000148005 1e-05
0.00288498 -0.000222813 1e-05
0.00294696 -0.000298173 1e-05
0.00300403 -0.000368654 1e-05
0.00304974 -0.000425943 1e-05
0.00309514 -0.000483477 1e-05
0.00314024 -0.000541253 1e-05
0.00318508 -0.000599225 1e-05
0.00323259 -0.000661211 1e-05
0.00325063 -0.000684988 1e-05
0.00326862 -0.000708804 1e-05
0.00328655 -0.00073266 1e-05
0.00330443 -0.000756556 1e-05
0.00332197 -0.00078009 1e-05
0.00339011 -0.000871877 1e-05
0.00345765 -0.000964107 1e-05
0.00352457 -0.00105679 1e-05
0.00359095 -0.00114986 1e-05
0.00365381 -0.00123896 1e-05
0.00368027 -0.00127686 1e-05
0.00370665 -0.00131481 1e-05
0.00373296 -0.00135282 1e-05
0.00375922 -0.00139086 1e-05
0.00378611 -0.00142994 1e-05
0.00383008 -0.00149404 1e-05
0.00387385 -0.0015583 1e-05
0.00391739 -0.0016227 1e-05
0.0039607 -0.00168725 1e-05
0.00400285 -0.00175044 1e-05
0.00407107 -0.00185328 1e-05
0.00413887 -0.00195639 1e-05
0.00420624 -0.00205979 1e-05
0.00427333 -0.00216337 1e-05
0.00434393 -0.00227306 1e-05
0.00434997 -0.00228251 1e-05
0.00435601 -0.00229196 1e-05
0.00436204 -0.00230141 1e-05
0.00436807 -0.00231087 1e-05
0.00437408 -0.0023203 1e-05
0.00445493 -0.00244725 1e-05
0.00453532 -0.00257449 1e-05
0.00461532 -0.00270197 1e-05
0.00469497 -0.00282968 1e-05
0.00477284 -0.00295498 1e-05
0.00479949 -0.002998 1e-05
0.00482612 -0.00304105 1e-05
0.00485271 -0.00308411 1e-05
0.0048793 -0.00312718 1e-05
0.00490609 -0.00317057 1e-05
0.00496672 -0.00326878 1e-05
0.0050272 -0.00336708 1e-05
0.00508753 -0.00346548 1e-05
0.00514773 -0.00356396 1e-05
0.00520737 -0.00366161 1e-05
0.00526042 -0.00374852 1e-05
0.00531343 -0.00383546 1e-05
0.0053664 -0.00392243 1e-05
0.0054194 -0.00400937 1e-05
0.00547262 -0.00409658 1e-05
0.00551559 -0.00416689 1e-05
0.00555853 -0.00423722 1e-05
0.00560143 -0.00430757 1e-05
0.00564432 -0.00437792 1e-05
0.00568714 -0.00444811 1e-05
0.00575842 -0.00456486 1e-05
0.00582975 -0.00468158 1e-05
0.00590113 -0.00479828 1e-05
0.00597264 -0.00491489 1e-05
0.00604356 -0.00503006 1e-05
0.00607981 -0.0050887 1e-05
0.00611607 -0.00514733 1e-05
0.00615234 -0.00520596 1e-05
0.00618863 -0.00526458 1e-05
0.00622503 -0.00532326 1e-05
0.00630381 -0.00545003 1e-05
0.00638278 -0.00557668 1e-05
0.00646195 -0.00570321 1e-05
0.00654139 -0.00582958 1e-05
0.00661893 -0.00595212 1e-05
0.00666283 -0.00602103 1e-05
0.00670678 -0.00608992 1e-05
0.00675078 -0.00615877 1e-05
0.00679486 -0.00622756 1e-05
0.00683933 -0.00629671 1e-05
0.00691122 -0.00640813 1e-05
0.00698336 -0.00651938 1e-05
0.00705576 -0.00663046 1e-05
0.00712846 -0.00674135 1e-05
0.00719878 -0.00684782 1e-05
0.00726946 -0.00695406 1e-05
0.00734037 -0.00706016 1e-05
0.0074115 -0.0071661 1e-05
0.00748294 -0.00727184 1e-05
0.00755591 -0.00737909 1e-05
0.00760135 -0.0074454 1e-05
0.00764693 -0.00751163 1e-05
0.00769263 -0.00757777 1e-05
0.00773846 -0.00764382 1e-05
0.00778313 -0.00770786 1e-05
0.00790091 -0.00787583 1e-05
0.00801946 -0.00804326 1e-05
0.00813878 -0.00821014 1e-05
0.0082591 -0.0083763 1e-05
0.00837203 -0.00853021 1e-05
0.00837972 -0.00854055 1e-05
0.00838741 -0.00855088 1e-05
0.0083951 -0.00856121 1e-05
0.0084028 -0.00857154 1e-05
0.00841052 -0.00858189 1e-05
0.00852152 -0.00873056 1e-05
0.00863334 -0.00887861 1e-05
0.008746 -0.00902602 1e-05
0.00885953 -0.00917277 1e-05
0.00896551 -0.00930788 1e-05
0.0090301 -0.00938917 1e-05
0.00909495 -0.00947025 1e-05
0.00916007 -0.00955111 1e-05
0.00922549 -0.00963173 1e-05
0.00929307 -0.00971438 1e-05
0.00934718 -0.00978002 1e-05
0.00940148 -0.00984549 1e-05
0.00945598 -0.0099108 1e-05
0.00951067 -0.00997595 1e-05
0.0095636 -0.0100386 1e-05
[...]
POINT_DATA 12278
 FIELD attributes 2
p 1 12278 float
177014 177096 177168 177231 177285 177330
108947 108965 108982 108996 109008 109018
87753.9 87763.4 87772.8 87782 87790.9 87799.3
79936.2 79942.5 79948.7 79954.8 79960.9 79966.8
77145.3 77154.5 77163.7 77172.9 77182.1 77191.4
77562.6 77576.2 77589.8 77603.4 77616.9 77630.5
81095.8 81108.2 81120.5 81132.6 81144.5 81156.3
90922.3 90942 90961.1 90979.4 90997 91013.8
117354 117387 117417 117446 117472 117495
215473 215283 215091 214897 214701 214503
177014 173408 169081 164503 162837 158905 155522 152872 144706 134665 129223 123794 119856 119245 118393 112348 106448 102327 101431 100564 99582.2 98600 97173.4 95705 93989.4 93623 93256 92888.4 92407.4 91909.7 89990.1 88186.2 86672.2 85884.9 85108.1 84422.4 83757.6 83107.8 82456 81622.1 81587.2 81558.2 81530.2 81502.2 81473.3 80940.6 80408.3 79876.5 79345.2 78920.1 78493.9 78084.7 77687 77311.4 76945.4 76595.5 76245.2 75921.5 75620 75318.9 75029.4 74739.8 74461.3 74198.4 73935.8 73682.2 73428.5 73178.4 72942.2 72706.2 72477.3 72248.3 72017.8 71798.3 71579.1 71365.5 71152 70933.3 70722.5 70511.8 70304.7 70097.7 69884.8 69672.3 69460.2 69248.3 69036.8 68821.6 68593.6 68366 68133.1 67897.4 67653.3 67400.7 67134.8 66854.5 66540.8 66228.6 65918 65604.9 65604.7 65604.5 65604.2 65603.9 65603.7 65212.4 64826.9 64447 64048.9 63568.8 63053.3 62543.6 61842.5 61069.4 60256.3 60008 59770.1 59543 59316.5 59131.2 58574.3 58015.2 57454 56980.7 56512.4 55907.8 55305.1 54765.3 54224.2 53839.8 53781.6 53723.4 53668.1 53620.5 53572.2 53019 52458.7 51940.7 51468.3 50923 50921.9 50920.8 50919.9 50919.1 50918.3 50491.2 50056.6 49654.1 49318.6 49049.7 48950.4 48850.7 48779.8 48710.2 48637.5 48449.1 48258.3 48065.7 47921.3 47789.2 47616.5 47447.8 47308.2 47166.4 47007.1 47000.7 46994.3 46987.9 46982.1 46976.6 46871.3 46759 46644.2 46531 46424 46388.5 46351.7 46312.1 46271.8 46227.9 46207.8 46187.6 46167.1 46146 46124.9 46099.5 46072.8 46035.7 45993.4 45951.9 45954.3 45956.4 45955.7 45954.9 45953.9 45942.6 45930.9 45918.8 45903.8 45888.6 45898.4 45907.5 45912 45916 45919.7 45918.8 45918 45917.1 45916.1 45915 45928.5 45942.2 45954.8 45965.6 45975.9 45986.1 45996.4 46006.2 46015.9 46025.7 46037.2 46048.6 46059.8 46070.9 46081.8 46100.3 46118.7 46137.1 46155.7 46174.3 46182.9 46191.4 46200.1 46209.2 46218.3 46241 46263.7 46287.1 46311 46334.8 46342.2 46349.6 46357.3 46365.6 46373.9 46397.1 46420.4 46444.5 46469.8 46494.6 46503.5 46512.4 46522.1 46532.3 46542.6 46562.2 46582 46602.4 46624.3 46645.5 46659.4 46673.4 46689 46705.3 46722.1 46733.6 46745.2 46756.9 46769.5 46781.9 46803.9 46826 46851.5 46877.7 46903.6 46904.7 46905.8 46907.2 46908.6 46910 46931.1 46952.5 46974.3 46998.2 47020.6 47030.1 47039.7 47050.7 47061.8 47073.2 47082.9 47092.6 47102.4 47112.9 47123 47140.2 47157.5 47176.5 47196.3 47215.7 47218.3 47220.9 47223.8 47226.8 47229.8 47244.1 47258.5 47273.1 47288.7 47303.6 47317.3 47331.5 47347 47362.6 47379.5 47379.6 47379.7 47379.7 47379.8 47379.9 47394.5 47409.2 47424.1 47439.9 47455.2 47467.2 47479.8 47493.4 47507.1 47520.2 47520.8 47521.5 47522.2 47522.8 47523.5 47535.3 47547.2 47559.1 47571.7 47584.2 47594.5 47604.8 47616.4 47628.6 47640.6 47644.7 47649.1 47653.7 47658.4 47663.3 47669.1 47675 47680.9 47687 47693.4 47702.2 47711.3 47721.1 47732 47742.4 47750 47758.1 47767 47776 47785.1 47787.3 47789.7 47792.2 47794.8 47797.4 47802.8 47808.1 47813.5 47819 47825.1 47831.3 47837.9 47844.8 47852.8 47860.7 47865.7 47870.8 47877 47883.7 47890.4 47894 47898.7 47903.3 47908 47913.3 47913.5 47913.8 47914 47914.3 47914.6 47918.7 47922.8 47927 47931.1 47936.2 47938.5 47941.1 47944 47947.9 47951.8 47952.9 47954 47955.9 47958.7 47961.4 47961.4 47961.8 47962.7 47963.6 47965 47964.2 47963.9 47963.6 47963.3 47963 47962.9 47962.9 47962.9 47962.9 47962.9 47961.6 47960.2 47958.9 47957.5 47956.7 47953.5 47951 47948.4 47946.1 47944.3 47940 47935.7 47931.9 47928.9 47925.8 47920.3 47914.8 47909.9 47905.6 47901.3 47894.7 47888.1 47882 47876.3 47870.9 47863.1 47855.7 47848.5 47841.2 47834.6 47825.8 47817.5 47809.1 47800.7 47792.6 47784 47775.6 47767.1 47758.7 47748.8 47748.1 47747.3 47746.6 47745.9 47745.1 47734.7 47724.3 47713.8 47703.3 47693 47681.3 47669.8 47658.3 47646.8 47635.5 47622.5 47610 47597.5 47585 47572.8 47558.8 47545.2 47531.7 47518.3 47505 47490.2 47475.5 47461.1 47446.8 47432.5 47416.8 47401.1 47385.8 47370.6 47355.4 47338.8 47322.3 47306 47290 47273.9 47256.5 47239.2 47222 47205.1 47188.2 47170.1 47152 47133.9 47116.2 47098.5 47079.7 47060.9 47042 47023.5 47005 46985.5 46966 46946.5 46927.1 46907.9 46887.8 46867.6 46847.4 46827.4 46807.5 46786.7 46765.9 46745.1 46724.4 46703.8 46682.5 46661.1 46639.7 46618.3 46597.1 46575.3 46553.3 46531.3 46509.3 46487.6 46465.2 46442.7 46420.2 46397.7 46375.4 46352.5 46329.5 46306.5 46283.5 46260.7 46237.3 46213.9 46190.4 46166.9 46143.6 46119.8 46095.9 46072 46048.1 46024.3 46000.1 45975.8 45951.5 45927.1 45902.9 45878.3 45853.6 45828.9 45804.2 45779.6 45754.6 45729.6 45704.5 45679.4 45654.4 45629.1 45603.7 45578.3 45552.9 45527.5 45501.9 45476.2 45450.5 45424.7 45399.1 45373.1 45347.1 45321.1 45295.1 45269.1 45242.8 45216.5 45190.2 45163.9 45137.6 45111.1 45084.5 45058 45031.4 45004.9 44978.1 44951.3 44924.4 44897.6 44870.8 44843.8 44816.7 44789.7 44762.6 44735.6 44708.3 44681 44653.7 44626.4 44599.2 44571.7 44544.2 44516.7 44489.2 44461.7 44434 44406.3 44378.6 44350.9 44323.1 44295.3 44267.3 44239.4 44211.5 44183.6 44155.5 44127.4 44099.3 44071.2 44043.1 44014.8 43986.5 43958.2 43929.9 43901.6 43873.2 43844.7 43816.2 43787.7 43759.3 43730.6 43702 43673.3 43644.7 43616 43587.2 43558.3 43529.5 43500.7 43471.8 43442.9 43413.9 43384.8 43355.8 43326.8 43297.7 43268.5 43239.3 43210.1 43180.9 43151.6 43122.3 43092.9 43063.6 43034.2 43004.7 42975.2 42945.7 42916.2 42886.6 42857 42827.3 42797.6 42767.9 42738.2 42708.4 42678.5 42648.6 42618.8 42588.9 42558.9 42528.8 42498.8 42468.8 42438.7 42408.5 42378.3 42348.1 42317.9 42287.7 42257.3 42226.9 42196.5 42166.1 42135.7 42105.2 42074.6 42044.1 42013.5 41982.9 41952.2 41921.4 41890.7 41859.9 41829.2 41798.3 41767.3 41736.4 41705.5 41674.5 41643.4 41612.3 41581.2 41550 41518.9 41487.6 41456.3 41425 41393.7 41362.3 41330.8 41299.3 41267.8 41236.3 41204.8 41173.1 41141.4 41109.7 41078 41046.2 41014.4 40982.4 40950.5 40918.6 40886.7 40854.6 40822.5 40790.4 40758.2 40726.1 40693.8 40661.5 40629.1 40596.8 40564.4 40531.9 40499.4 40466.8 40434.3 40401.7 40369 40336.2 40303.5 40270.7 40237.9 40205 40172 40139 40106 40073 40039.8 40006.6 39973.4 39940.2 39906.9 39873.5 39840.1 39806.7 39773.2 39739.7 39706.1 39672.4 39638.8 39605.1 39571.3 39537.5 39503.6 39469.7 39435.7 39401.8 39367.7 39333.5 39299.4 39265.2 39231 39196.7 39162.3 39127.9 39093.5 39059 39024.4 38989.8 38955.1 38920.5 38885.7 38850.9 38816 38781.1 38746.2 38711.2 38676.1 38641 38605.8 38570.7 38535.4 38500.1 38464.7 38429.2 38393.8 38358.3 38322.7 38287 38251.4 38215.7 38179.9 38144 38108.1 38072.2 38036.2 38000.2 37964 37927.8 37891.6 37855.4 37819.1 37782.7 37746.2 37709.7 37673.2 37636.6 37599.9 37563.2 37526.4 37489.6 37452.8 37415.8 37378.8 37341.7 37304.6 37267.5 37230.3 37193 37155.6 37118.3 37080.9 37043.3 37005.7 36968.1 36930.5 36892.8 36855 36817.1 36779.2 36741.2 36703.3 36665.1 36627 36588.8 36550.6 36512.3 36473.9 36435.4 36396.9 36358.4 36319.8 36281.1 36242.4 36203.6 36164.8 36125.9 36086.9 36047.8 36008.8 35969.6 35930.5 35891.2 35851.8 35812.4 35773 35733.5 35693.9 35654.3 35614.6 35574.8 35535 35495.1 35455.2 35415.2 35375.1 35335 35294.8 35254.5 35214.2 35173.9 35133.5 35092.9 35052.4 35011.7 34971.1 34930.4 34889.5 34848.6 34807.7 34766.7 34725.6 34684.5 34643.3 34602 34560.7 34519.4 34477.8 34436.3 34394.7 34353.1 34311.5 34269.6 34227.8 34185.9 34143.9 34101.9 34059.8 34017.6 33975.4 33933.1 33890.8 33848.3 33805.8 33763.3 33720.6 33678 33635.2 33592.4 33549.5 33506.5 33463.5 33420.4 33377.3 33334 33290.7 33247.4 33203.9 33160.5 33116.9 33073.3 33029.6 32985.8 32942 32898.1 32854.1 32810.1 32766 32721.8 32677.6 32633.2 32588.9 32544.4 32499.9 32455.3 32410.7 32366 32321.1 32276.3 32231.4 32186.4 32141.3 32096.1 32050.9 32005.6 31960.3 31914.9 31869.4 31823.8 31778.2 31732.5 31686.8 31640.8 31594.9 31548.9 31502.9 31456.8 31410.5 31364.3 31317.9 31271.5 31225.1 31178.4 31131.8 31085.1 31038.3 30991.5 30944.5 30897.5 30850.4 30803.3 30756.1 30708.8 30661.4 30614 30566.5 30518.9 30471.2 30423.5 30375.7 30327.8 30279.9 30231.8 30183.7 30135.5 30087.2 30039 29990.5 29942 29893.4 29844.8 29796.2 29747.3 29698.4 29649.5 29600.5 29551.5 29502.2 29453 29403.6 29354.2 29304.8 29255.2 29205.6 29155.9 29106.1 29056.3 29006.3 28956.2 28906.1 28856 28805.8 28755.4 28705 28654.5 28603.9 28553.3 28502.5 28451.7 28400.8 28349.8 28298.8 28247.6 28196.4 28145.1 28093.7 28042.3 27990.7 27939.1 27887.4 27835.6 27783.8 27731.8 27679.7 27627.6 27575.4 27523.2 27470.8 27418.3 27365.8 27313.2 27260.5 27207.7 27154.8 27101.8 27048.8 26995.8 26942.4 26889.1 26835.8 26782.3 26728.9 26675.1 26621.4 26567.6 26513.7 26459.8 26405.7 26351.5 26297.3 26243 26188.7 26134.1 26079.6 26024.9 25970.3 25915.6 25860.6 25805.6 25750.6 25695.6 25640.5 25585.1 25529.8 25474.4 25419.1 25363.6 25308 25252.4 25196.8 25141.1 25085.5 25029.6 24973.8 24918.1 24862.3 24806.6 24750.7 24694.9 24639.2 24583.6 24527.9 24472.2 24416.9 24361.8 24306.7 24252 24197.3 24142.3 24087.3 24032.3 23977 23922.2 23873.6 23824.9 23776.3 23732.6 23683.4 23618.1 23552.6 23487.1 23412.6 23361.4 23331 23300.9 23271.2 23257 23252.8 23248.6 23244.5 23240.3 23238.8 23236.2 23230.9 23225.7 23220.4 23214.7 23187.7 23160.5 23133.1 23105.4 23061.8 22985.9 22916.9 22847.9 22779.1 22722.8 22671.6 22615.4 22559 22502.6 22439.9 22372.2 22304.1 22236 22167.9 22099.5 22028.2 21954.9 21881.7 21808.5 21733.1 21654.9 21575.1 21495.3 21415.5 21334.1 21249.8 21163.7 21077.5 20991.4 20903.4 20812.4 20719.5 20626.5 20533.5 20438.7 20340.6 20240.4 20140.1 20039.7 19937.4 19831.5 19723.3 19615 19506.6 19396.1 19281.8 19164.7 19047.5 18930.2 18810.4 18686.4 18559.6 18432.7 18305.7 18176.3 18042.2 17904.3 17766.1 17627.8 17485.9 17338.9 17189.2 17039.4 16889.4 16737.2 16579.4 16414.8 16249.9 16084.7 15913.2 15735.4 15557.3 15379.1 15201 15022.9 14838.3 14638.8 14438.4 14237.3 14022.1 13798.9 13585.8 13373.3 13161.3 12960 12751.1 12503.6 12253.9 12002 11712.7 11412.5 11157.2 10904.7 10654.9 10450.2 10237.6 9921.61 9598.03 9265.87 8833.19 8384.2 8071.44 7773.83 7494.24 7349.13 7198.1 6801.62 6357.16 5838.92 5089.56 4311.27 3779.12 3398.21 3250.86 3316.6 3382.91 3361.98 2777.1 1388.14 0