4.545454545e-05 	-2.898870399e-05 	-1.153737803e-05 	4.257191355e-12
6.060606061e-05 	-7.494855658e-05 	-2.982954872e-05 	1.100666103e-11
7.575757576e-05 	-0.0001209084208 	-4.812172115e-05 	1.775613258e-11
9.090909091e-05 	-0.0001465010171 	-6.702211766e-05 	2.107573952e-11
0.0001060606061 	-0.0001492862961 	-8.66029558e-05 	2.055609077e-11
0.0001212121212 	-0.0001520715874 	-0.0001061837965 	2.003644145e-11
0.0001363636364 	-0.0001421402675 	-0.0001263483169 	1.971803656e-11
0.0001515151515 	-0.0001042659312 	-0.0001477944027 	1.984204552e-11
0.0001666666667 	-6.639160223e-05 	-0.0001692404896 	1.996605415e-11
0.0001818181818 	-2.129819092e-05 	-0.0001909236552 	2.015290737e-11
0.000196969697 	6.352087591e-05 	-0.0002139095425 	2.068478584e-11
0.0002121212121 	0.0001483399312 	-0.0002368954326 	2.121666412e-11
0.0002272727273 	0.000233158978 	-0.0002598813249 	2.174854226e-11
0.0002424242424 	0.000375231568 	-0.0002837761303 	2.211194793e-11
0.0002575757576 	0.0005176033306 	-0.0003076754619 	2.247441371e-11
0.0002727272727 	0.0006599750841 	-0.0003315747948 	2.283687948e-11
0.0002878787879 	0.0008620559602 	-0.0003558066254 	2.308793608e-11
0.000303030303 	0.001075865012 	-0.0003801035617 	2.331688462e-11
0.0003181818182 	0.001289674042 	-0.0004044005029 	2.354583367e-11
0.0003333333333 	0.00156360564 	-0.0004284560284 	2.321294295e-11
0.0003484848485 	0.001866241739 	-0.0004523960995 	2.261197857e-11
0.0003636363636 	0.002168877805 	-0.0004763361773 	2.201101434e-11
0.0003787878788 	0.002528386751 	-0.000499546392 	2.167663013e-11
0.0003939393939 	0.002940842803 	-0.0005220769433 	2.159083744e-11
0.0004090909091 	0.003353298811 	-0.0005446075017 	2.150504402e-11
0.0004242424242 	0.003813880905 	-0.0005662064229 	2.230877107e-11
0.0004393939394 	0.004360431091 	-0.0005861409949 	2.470155776e-11
0.0004545454545 	0.004906981243 	-0.0006060755696 	2.709434393e-11
0.0004696969697 	0.005485710583 	-0.0006252637993 	2.9231264e-11
0.0004848484848 	0.006193219907 	-0.0006414650751 	3.034345161e-11
0.0005 	0.006900729202 	-0.0006576663562 	3.145563906e-11
0.0005151515152 	0.007616001612 	-0.0006736759025 	3.250481305e-11
0.0005303030303 	0.008513109635 	-0.000685194607 	3.208305633e-11
0.0005454545455 	0.009410217623 	-0.0006967133131 	3.166129939e-11
0.0005606060606 	0.01030732557 	-0.0007082320212 	3.123954221e-11
0.0005757575758 	0.01139785778 	-0.0007150199621 	3.169222389e-11
0.0005909090909 	0.01251427545 	-0.0007211748397 	3.226164974e-11
0.0006060606061 	0.01363069306 	-0.0007273297233 	3.283107558e-11
0.0006212121212 	0.01492756062 	-0.0007293267953 	3.277051955e-11
0.0006363636364 	0.01629356608 	-0.0007297309164 	3.246853418e-11
0.0006515151515 	0.01765957145 	-0.000730135045 	3.216654892e-11
0.0006666666667 	0.01918353791 	-0.0007272399249 	3.17673167e-11
0.0006818181818 	0.02082960884 	-0.0007217946085 	3.129333476e-11
0.000696969697 	0.02247567966 	-0.0007163493006 	3.081935188e-11
0.0007121212121 	0.024247475 	-0.0007086047925 	3.071170947e-11
0.0007272727273 	0.02620394782 	-0.0006974832002 	3.11422209e-11
0.0007424242424 	0.02816042053 	-0.0006863616118 	3.157273191e-11
0.0007575757576 	0.03020060526 	-0.00067394875 	3.181432876e-11
0.0007727272727 	0.03249728701 	-0.000657579797 	3.147677465e-11
0.0007878787879 	0.03479396868 	-0.0006412108493 	3.113922016e-11
0.000803030303 	0.03712278677 	-0.0006244430658 	3.083467418e-11
0.0008181818182 	0.03978849881 	-0.0006034954956 	3.087570241e-11
0.0008333333333 	0.04245421079 	-0.0005825479276 	3.091673056e-11
0.0008484848485 	0.04511992269 	-0.0005616003617 	3.095775863e-11
0.0008636363636 	0.0481534957 	-0.0005372275933 	3.287533477e-11
0.0008787878788 	0.05121556419 	-0.0005125896379 	3.493788694e-11
0.0008939393939 	0.05427763256 	-0.0004879516873 	3.700043983e-11
0.0009090909091 	0.05766400539 	-0.0004613049532 	3.675771004e-11
0.0009242424242 	0.06114772516 	-0.0004340554154 	3.582309265e-11
0.0009393939394 	0.06463144473 	-0.0004068058838 	3.488847587e-11
0.0009545454545 	0.06838630585 	-0.0003787128753 	3.190571419e-11
0.0009696969697 	0.07231440894 	-0.0003500811708 	2.761563633e-11
0.0009848484848 	0.07624251182 	-0.0003214494725 	2.332555571e-11
0.001 	0.08037998605 	-0.0002927932769 	2.091267503e-11
0.001015151515 	0.08477214685 	-0.0002641076045 	2.078404564e-11
0.00103030303 	0.08916430736 	-0.0002354219357 	2.06554143e-11
0.001045454545 	0.09369679958 	-0.0002071188303 	2.101194926e-11
0.001060606061 	0.09856922274 	-0.0001797429256 	2.254213284e-11
0.001075757576 	0.1034416457 	-0.0001523670242 	2.407231492e-11
0.001090909091 	0.1083797152 	-0.0001253422993 	2.525216786e-11
0.001106060606 	0.1137449026 	-0.000100603542 	2.414877869e-11
0.001121212121 	0.11911009 	-7.586478608e-05 	2.304538967e-11
0.001136363636 	0.1244752772 	-5.112603118e-05 	2.194200079e-11
0.001151515152 	0.1303293402 	-3.014133824e-05 	2.013879654e-11
0.001166666667 	0.1361963276 	-9.25604238e-06 	1.831652823e-11
0.001181818182 	0.1420633147 	1.16292513e-05 	1.64942617e-11
0.001196969697 	0.1483453472 	2.853901409e-05 	1.122785956e-11
0.001212121212 	0.154721426 	4.45477811e-05 	5.181207012e-12
0.001227272727 	0.1610975046 	6.055654634e-05 	-8.654436959e-13
0.001242424242 	0.167815918 	7.2907644e-05 	-4.630383136e-12
0.001257575758 	0.1747136188 	8.334296614e-05 	-7.199719303e-12
0.001272727273 	0.1816113192 	9.377828708e-05 	-9.769055206e-12
0.001287878788 	0.1887904202 	0.000101304981 	-8.800591289e-12
0.001303030303 	0.1962539667 	0.0001058913929 	-4.256116723e-12
0.001318181818 	0.2037175129 	0.0001104778041 	2.8835778e-13
0.001333333333 	0.2114318892 	0.000112848092 	3.551537999e-12
0.001348484848 	0.2196368205 	0.0001108840442 	4.310519671e-12
0.001363636364 	0.2278417513 	0.0001089199967 	5.069499486e-12
0.001378787879 	0.2363036552 	0.000105086663 	4.783831402e-12
0.001393939394 	0.2459414666 	9.269927757e-05 	-2.823575267e-13
0.001409090909 	0.2555792778 	8.031189268e-05 	-5.348546844e-12
0.001424242424 	0.2653042992 	6.773693457e-05 	-1.024510286e-11
0.001439393939 	0.2792263505 	4.615500903e-05 	-6.980891373e-12
0.001454545455 	0.293148401 	2.457308434e-05 	-3.716681028e-12
0.00146969697 	0.3070704506 	2.991160705e-06 	-4.524721274e-13
