/*--------------------------------*- C++ -*----------------------------------*\
| =========                 |                                                 |
| \\      /  F ield         | OpenFOAM: The Open Source CFD Toolbox           |
|  \\    /   O peration     | Version:  2.3.x                                 |
|   \\  /    A nd           | Web:      www.OpenFOAM.org                      |
|    \\/     M anipulation  |                                                 |
\*---------------------------------------------------------------------------*/
FoamFile
{
    version     2.0;
    format      ascii;
    class       volScalarField;
    location    "0";
    object      shearrate;
}
// * * * * * * * * * * * * * * * * * * * * * * * * * * * * * * * * * * * * * //

dimensions      [0 0 -1 0 0 0 0];

internalField   nonuniform List<scalar> 
6300
(
1.21268
6.96947
15.8775
28.0459
43.6961
63.3323
87.3803
116.028
149.296
187.145
229.518
276.362
327.623
383.245
443.171
507.345
575.704
648.187
724.729
805.26
889.707
977.986
1070
1165.64
1264.79
1367.48
1475.23
1599.65
1820.69
2818.29
2.79653
9.94283
20.1567
33.4477
50.1566
70.834
95.8689
125.387
159.369
197.756
240.49
287.517
338.785
394.241
453.829
517.495
585.18
656.825
732.366
811.739
894.873
981.694
1072.12
1166.04
1263.41
1364.35
1470.64
1594.43
1816.68
2813.76
4.0527
12.0039
22.9596
36.856
54.1191
75.3757
101.019
131.134
165.66
204.525
247.667
295.036
346.581
402.251
461.992
525.751
593.47
665.09
740.551
819.788
902.733
989.314
1079.45
1173.06
1270.07
1370.67
1476.68
1600.35
1823.29
2822.61
5.60831
14.5691
26.4042
40.9986
58.8786
80.7624
107.062
137.82
172.933
212.3
255.855
303.545
355.322
411.138
470.94
534.675
602.287
673.72
748.915
827.808
910.337
996.431
1086.02
1179.02
1275.4
1375.37
1480.82
1604.22
1827.99
2828.33
7.51653
17.5094
30.2158
45.4913
63.9695
86.4603
113.398
144.792
180.487
220.354
264.315
312.317
364.314
420.258
480.099
543.785
611.262
682.476
757.368
835.881
917.954
1003.52
1092.53
1184.9
1280.62
1379.95
1484.86
1608.01
1832.59
2833.19
9.77008
20.7691
34.3008
50.2246
69.2788
92.3542
119.906
151.913
188.175
228.532
272.893
321.203
373.416
429.484
489.361
552.996
620.337
691.33
765.923
844.06
925.685
1010.74
1099.18
1190.94
1286.04
1384.75
1489.12
1612
1837.29
2837.82
12.4093
24.3774
38.6829
55.2222
74.838
98.4878
126.638
159.242
196.058
236.894
281.646
330.255
382.675
438.86
498.765
562.339
629.534
700.299
774.583
852.336
933.507
1018.05
1105.91
1197.07
1291.54
1389.64
1493.45
1616.03
1841.95
2842.09
15.4677
28.3489
43.3656
60.4816
80.6432
104.859
133.598
166.784
204.138
245.441
290.574
339.474
392.092
448.386
508.309
571.815
638.856
709.385
783.354
860.717
941.431
1025.45
1112.75
1203.3
1297.14
1394.6
1497.83
1620.08
1846.54
2846.05
18.9728
32.6966
48.355
66.0051
86.6946
111.47
140.789
174.544
212.423
254.18
299.683
348.862
401.671
458.065
517.999
581.428
648.308
718.594
792.241
869.21
949.461
1032.96
1119.68
1209.62
1302.81
1399.63
1502.25
1624.12
1851.07
2849.75
22.9511
37.435
53.6609
71.8001
92.9982
118.325
148.217
182.53
220.921
263.12
308.981
358.43
411.419
467.903
527.839
591.184
657.895
727.93
801.25
877.817
957.599
1040.57
1126.71
1216.02
1308.56
1404.7
1506.68
1628.14
1855.53
2853.19
27.4283
42.5795
59.2948
77.8763
99.5621
125.433
155.89
190.752
229.643
272.27
318.478
368.186
421.345
477.91
537.839
601.09
667.623
737.399
810.382
886.539
965.843
1048.27
1133.82
1222.49
1314.35
1409.8
1511.1
1632.12
1859.92
2856.4
32.4293
48.146
65.2698
84.2453
106.396
132.801
163.818
199.219
238.598
281.643
328.185
378.14
431.458
488.093
548.004
611.152
677.497
747.004
819.639
895.376
974.192
1056.07
1141.01
1229.02
1320.18
1414.9
1515.5
1636.05
1864.22
2859.38
37.9793
54.152
71.6004
90.9202
113.513
140.442
172.01
207.942
247.798
291.247
338.111
388.302
441.767
498.46
558.343
621.376
687.522
756.748
829.025
904.329
982.642
1063.95
1148.27
1235.6
1326.03
1420
1519.87
1639.92
1868.44
2862.13
44.1038
60.6159
78.3022
97.9153
120.924
148.365
180.478
216.932
257.253
301.094
348.268
398.683
452.282
509.022
568.864
631.769
697.703
766.635
838.54
913.396
991.191
1071.92
1155.58
1242.21
1331.9
1425.07
1524.19
1643.72
1872.57
2864.64
50.8295
67.5576
85.3926
105.246
128.645
156.586
189.234
226.2
266.976
311.197
358.668
409.292
463.013
519.787
579.573
642.337
708.045
776.669
848.185
922.577
999.835
1079.96
1162.95
1248.86
1337.76
1430.12
1528.45
1647.45
1876.6
2866.9
58.1841
74.9983
92.8898
112.93
136.691
165.117
198.29
235.759
276.979
321.568
369.322
420.142
473.971
530.763
590.481
653.088
718.554
786.852
857.962
931.871
1008.57
1088.07
1170.37
1255.52
1343.61
1435.13
1532.64
1651.1
1880.52
2868.91
66.1967
82.961
100.813
120.984
145.077
173.973
207.663
245.623
287.275
332.218
380.242
431.244
485.166
541.961
601.593
664.027
729.233
797.188
867.873
941.277
1017.4
1096.24
1177.82
1262.19
1349.44
1440.08
1536.75
1654.65
1884.32
2870.64
74.8985
91.47
109.185
129.427
153.823
183.172
217.365
255.806
297.877
343.162
391.441
442.61
496.608
553.39
612.919
675.162
740.089
807.68
877.917
950.794
1026.31
1104.47
1185.31
1268.86
1355.24
1444.98
1540.78
1658.09
1888
2872.08
84.3224
100.551
118.026
138.28
162.945
192.73
227.414
266.324
308.801
354.412
402.932
454.251
508.309
565.06
624.467
686.499
751.127
818.331
888.098
960.423
1035.31
1112.77
1192.82
1275.53
1361.01
1449.8
1544.7
1661.42
1891.53
2873.2
94.5036
110.233
127.361
147.563
172.463
202.664
237.826
277.192
320.062
365.984
414.728
466.18
520.279
576.981
636.246
698.045
762.351
829.145
898.417
970.162
1044.39
1121.11
1200.36
1282.18
1366.72
1454.54
1548.52
1664.63
1894.92
2873.99
105.48
120.546
137.216
157.3
182.399
212.995
248.619
288.428
331.675
377.893
426.843
478.41
532.532
589.162
648.264
709.807
773.767
840.126
908.875
980.012
1053.55
1129.5
1207.91
1288.82
1372.38
1459.2
1552.22
1667.69
1898.13
2874.42
117.291
131.521
147.617
167.514
192.774
223.743
259.813
300.048
343.657
390.154
439.292
490.955
545.078
601.615
660.531
721.794
785.381
851.277
919.474
989.973
1062.79
1137.94
1215.46
1295.42
1377.98
1463.75
1555.79
1670.61
1901.15
2874.46
129.98
143.193
158.593
178.231
203.611
234.928
271.427
312.073
356.027
402.783
452.09
503.828
557.93
614.351
673.055
734.012
797.199
862.602
930.216
1000.04
1072.1
1146.41
1223.02
1301.99
1383.5
1468.19
1559.22
1673.36
1903.98
2874.08
143.594
155.598
170.176
189.478
214.935
246.575
283.482
324.521
368.802
415.799
465.254
517.043
571.101
627.381
685.847
746.469
809.226
874.105
941.103
1010.23
1081.49
1154.93
1230.58
1308.52
1388.94
1472.51
1562.49
1675.93
1906.58
2873.25
158.182
168.777
182.398
201.284
226.771
258.706
296.002
337.414
382.002
429.219
478.799
530.617
584.606
640.717
698.916
759.173
821.468
885.79
952.137
1020.52
1090.95
1163.47
1238.12
1314.99
1394.28
1476.69
1565.59
1678.31
1908.94
2871.94
173.798
182.772
195.294
213.679
239.148
271.347
309.009
350.775
395.648
443.063
492.744
544.565
598.457
654.371
712.273
772.133
833.932
897.661
963.319
1030.92
1100.48
1172.04
1245.65
1321.4
1399.51
1480.72
1568.51
1680.47
1911.04
2870.12
190.497
197.627
208.902
226.695
252.095
284.526
322.529
364.626
409.762
457.35
507.107
558.904
612.669
668.356
725.928
785.356
846.624
909.722
974.652
1041.43
1110.07
1180.63
1253.15
1327.74
1404.62
1484.59
1571.22
1682.4
1912.85
2867.74
208.342
213.393
223.262
240.368
265.642
298.27
336.589
378.992
424.367
472.102
521.908
573.65
627.259
682.685
739.892
798.853
859.55
921.977
986.137
1052.04
1119.73
1189.23
1260.62
1334
1409.61
1488.28
1573.72
1684.08
1914.34
2864.76
227.399
230.12
238.418
254.735
279.824
312.612
351.218
393.901
439.487
487.341
537.165
588.823
642.241
697.371
754.176
812.631
872.717
934.43
997.774
1062.77
1129.44
1197.85
1268.05
1340.16
1414.44
1491.77
1575.98
1685.49
1915.5
2861.15
247.738
247.865
254.415
269.836
294.676
327.583
366.444
409.379
455.149
503.092
552.902
604.441
657.633
712.429
768.793
826.699
886.13
947.084
1009.57
1073.6
1139.21
1206.46
1275.43
1346.22
1419.12
1495.06
1577.98
1686.6
1916.29
2856.86
269.436
266.689
271.302
285.712
310.235
343.218
382.301
425.457
471.379
519.378
569.141
620.524
673.451
727.874
783.754
841.067
899.797
959.942
1021.51
1084.53
1149.03
1215.07
1282.74
1352.15
1423.62
1498.11
1579.71
1687.39
1916.68
2851.83
292.575
286.656
289.134
302.409
326.543
359.555
398.823
442.167
488.206
536.226
585.904
637.093
689.715
743.719
799.07
855.743
913.723
973.009
1033.61
1095.56
1158.89
1223.67
1289.98
1357.95
1427.92
1500.91
1581.14
1687.84
1916.65
2846.02
317.243
307.837
307.967
319.977
343.642
376.632
416.046
459.541
505.661
553.665
603.217
654.169
706.441
759.982
814.755
870.737
927.913
986.285
1045.87
1106.69
1168.79
1232.24
1297.12
1363.6
1432.01
1503.45
1582.24
1687.91
1916.14
2839.38
343.536
330.306
327.862
338.467
361.58
394.492
434.009
477.616
523.778
571.723
621.107
671.776
723.65
776.677
830.821
886.057
942.374
999.774
1058.27
1117.9
1178.71
1240.77
1304.17
1369.08
1435.87
1505.68
1582.99
1687.59
1915.13
2831.84
371.556
354.146
348.885
357.936
380.406
413.181
452.755
496.43
542.59
590.432
639.6
689.938
741.363
793.822
847.279
901.712
957.109
1013.48
1070.83
1129.2
1188.65
1249.25
1311.1
1374.38
1439.48
1507.6
1583.37
1686.82
1913.57
2823.35
401.415
379.444
371.109
378.444
400.174
432.748
472.327
516.023
562.134
609.824
658.726
708.679
759.598
811.431
864.143
917.709
972.123
1027.39
1083.53
1140.58
1198.6
1257.67
1317.89
1379.46
1442.8
1509.18
1583.34
1685.59
1911.43
2813.83
433.234
406.295
394.61
400.058
420.942
453.244
492.774
536.44
582.451
629.935
678.515
728.024
778.378
829.522
881.422
934.057
987.418
1041.51
1096.37
1152.03
1208.54
1266
1324.53
1384.32
1445.83
1510.38
1582.88
1683.85
1908.66
2803.23
467.143
434.802
419.473
422.847
442.772
474.728
514.147
557.728
603.581
650.801
698.998
748
797.722
848.11
899.129
950.759
1002.99
1055.85
1109.34
1163.52
1218.46
1274.24
1330.98
1388.92
1448.52
1511.17
1581.94
1681.57
1905.2
2791.47
503.284
465.078
445.787
446.889
465.733
497.259
536.502
579.935
625.57
672.462
720.208
768.635
817.653
867.21
917.272
967.819
1018.85
1070.38
1122.43
1175.06
1228.34
1282.35
1337.24
1393.23
1450.84
1511.53
1580.49
1678.7
1901.02
2778.47
541.81
497.245
473.652
472.268
489.899
520.905
559.898
603.117
648.464
694.957
742.18
789.954
838.19
886.835
935.857
985.239
1034.98
1085.1
1135.63
1186.62
1238.15
1290.32
1343.26
1397.24
1452.78
1511.42
1578.5
1675.21
1896.05
2764.16
582.891
531.436
503.175
499.075
515.348
545.737
584.402
627.33
672.314
718.329
764.947
811.984
859.351
906.996
954.889
1003.02
1051.38
1100
1148.92
1198.18
1247.88
1298.1
1349.02
1400.89
1454.28
1510.8
1575.93
1671.04
1890.24
2748.45
626.71
567.797
534.476
527.411
542.171
571.834
610.082
652.636
697.172
742.622
788.544
834.751
881.153
927.701
974.366
1021.14
1068.03
1115.05
1162.26
1209.71
1257.48
1305.68
1354.48
1404.16
1455.31
1509.63
1572.73
1666.16
1883.54
2731.26
673.47
606.488
567.685
557.385
570.462
599.282
637.016
679.102
723.095
767.881
813.005
858.276
903.607
948.949
994.28
1039.59
1084.9
1130.23
1175.63
1221.16
1266.92
1313.01
1359.6
1407
1455.84
1507.87
1568.86
1660.51
1875.87
2712.5
723.394
647.688
602.947
589.119
600.33
628.177
665.285
706.798
750.139
794.149
838.359
882.577
926.717
970.735
1014.61
1058.35
1101.97
1145.5
1188.99
1232.51
1276.15
1320.03
1364.34
1409.37
1455.81
1505.48
1564.28
1654.05
1867.19
2692.09
776.731
691.596
640.422
622.751
631.893
658.621
694.98
735.798
778.363
821.468
864.632
907.662
950.477
993.039
1035.34
1077.38
1119.18
1160.8
1202.27
1243.68
1285.11
1326.7
1368.63
1411.22
1455.18
1502.41
1558.94
1646.73
1857.44
2669.95
833.762
738.436
680.294
658.435
665.284
690.73
726.197
766.18
807.824
849.875
891.839
933.528
974.866
1015.82
1056.4
1096.61
1136.48
1176.06
1215.41
1254.6
1293.74
1332.95
1372.42
1412.49
1453.9
1498.62
1552.8
1638.5
1846.56
2645.98
894.804
788.461
722.77
696.344
700.653
724.632
759.041
798.022
838.573
879.393
919.981
960.151
999.84
1039.03
1077.73
1115.96
1153.76
1191.19
1228.31
1265.2
1301.95
1338.7
1375.64
1413.13
1451.92
1494.05
1545.81
1629.32
1834.49
2620.13
960.224
841.966
768.089
736.68
738.17
760.465
793.619
831.399
870.651
910.03
949.03
987.477
1025.32
1062.56
1099.21
1135.31
1170.91
1206.07
1240.85
1275.34
1309.64
1343.86
1378.21
1413.05
1449.17
1488.67
1537.95
1619.16
1821.21
2592.33
1030.45
899.298
816.532
779.674
778.026
798.383
830.04
866.373
904.074
941.758
978.921
1015.41
1051.18
1086.26
1120.68
1154.5
1187.76
1220.54
1252.89
1284.91
1316.67
1348.32
1380.03
1412.19
1445.6
1482.43
1529.17
1607.99
1806.67
2562.55
1106.02
960.875
868.436
825.601
820.441
838.546
868.403
902.98
938.817
974.495
1009.52
1043.77
1077.23
1109.93
1141.94
1173.31
1204.1
1234.39
1264.24
1293.72
1322.92
1351.95
1381.01
1410.46
1441.15
1475.3
1519.46
1595.8
1790.88
2530.79
1187.57
1027.21
924.207
874.782
865.654
881.113
908.78
941.204
974.781
1008.07
1040.62
1072.31
1103.17
1133.27
1162.67
1191.44
1219.66
1247.38
1274.66
1301.58
1328.19
1354.62
1381.03
1407.79
1435.77
1467.24
1508.82
1582.61
1773.87
2497.08
1276
1098.97
984.354
927.594
913.922
926.21
951.169
980.922
1011.74
1042.18
1071.83
1100.61
1128.59
1155.85
1182.47
1208.52
1234.08
1259.18
1283.89
1308.24
1332.3
1356.15
1379.96
1404.09
1429.41
1458.24
1497.26
1568.46
1755.69
2461.53
1372.3
1176.99
1049.5
984.47
965.485
973.887
995.433
1021.84
1049.26
1076.31
1102.59
1128.1
1152.91
1177.13
1200.83
1224.09
1246.96
1269.46
1291.62
1313.47
1335.05
1356.41
1377.7
1399.29
1422.04
1448.31
1484.83
1553.44
1736.47
2424.38
1478.73
1262.59
1120.46
1045.85
1020.45
1023.95
1041.11
1063.27
1086.54
1109.56
1132
1153.88
1175.3
1196.35
1217.09
1237.56
1257.79
1277.77
1297.5
1316.97
1336.19
1355.19
1374.12
1393.3
1413.63
1437.48
1471.61
1537.68
1716.41
2385.88
1595.99
1357.01
1198.13
1112.09
1078.69
1075.83
1087.31
1104.14
1122.4
1140.77
1158.96
1176.99
1194.93
1212.82
1230.67
1248.48
1266.23
1283.86
1301.34
1318.62
1335.67
1352.51
1369.26
1386.23
1404.32
1425.92
1457.81
1521.45
1695.87
2346.75
1734.43
1464.01
1283.49
1182.78
1138.86
1127.57
1131.7
1141.95
1154.37
1167.65
1181.42
1195.62
1210.22
1225.19
1240.44
1255.89
1271.45
1287.04
1302.55
1317.92
1333.08
1348.03
1362.84
1377.85
1393.95
1413.55
1443.44
1504.85
1675.04
2307.07
1882.3
1582.5
1376.68
1257.08
1199.14
1176.82
1171.89
1174.66
1180.96
1189.26
1198.98
1209.85
1221.66
1234.23
1247.37
1260.92
1274.72
1288.62
1302.5
1316.24
1329.77
1343.04
1356.14
1369.39
1383.68
1401.46
1429.53
1488.92
1655.2
2269.77
2114.49
1727.47
1472.87
1324.45
1248
1212.65
1198.09
1193.73
1194.8
1199.25
1206.1
1214.74
1224.76
1235.8
1247.58
1259.88
1272.47
1285.19
1297.88
1310.42
1322.7
1334.68
1346.45
1358.32
1371.23
1387.64
1414.39
1472.23
1634.83
2230.44
2280.03
1867.81
1570.95
1388.27
1289.14
1239.9
1217.24
1208.31
1206.84
1209.81
1215.69
1223.58
1232.9
1243.25
1254.29
1265.77
1277.48
1289.23
1300.87
1312.26
1323.3
1333.95
1344.27
1354.59
1365.84
1380.51
1405.43
1461.27
1620.94
2205.56
2942.16
2000.02
1561.77
1351.68
1253.03
1210.11
1193.74
1189.67
1191.57
1196.73
1203.91
1212.46
1221.97
1232.16
1242.78
1253.66
1264.62
1275.51
1286.21
1296.61
1306.64
1316.29
1325.66
1335.15
1345.77
1360.11
1385.09
1441.03
1598.08
2161.42
3081.61
2055.1
1580.64
1360.72
1260.83
1218.65
1202.98
1199
1200.39
1204.67
1210.79
1218.21
1226.58
1235.62
1245.12
1254.89
1264.74
1274.55
1284.18
1293.53
1302.53
1311.17
1319.57
1328.12
1337.84
1351.31
1375.42
1430.32
1585.54
2137.94
2663.81
2105.83
1719.14
1484.81
1356.25
1290.84
1259.26
1244.7
1238.75
1237.59
1239.45
1243.41
1248.92
1255.56
1263
1270.98
1279.26
1287.64
1295.97
1304.09
1311.89
1319.33
1326.48
1333.68
1341.88
1353.55
1375.47
1427.92
1581.52
2132.79
2625.57
2094.02
1735.1
1514.96
1389.65
1322.3
1287.24
1269.14
1259.97
1255.9
1255.09
1256.62
1259.87
1264.43
1269.93
1276.1
1282.68
1289.46
1296.26
1302.92
1309.32
1315.42
1321.27
1327.21
1334.22
1344.79
1365.78
1417.59
1570.68
2114.16
2545.31
2073.97
1745.17
1539.1
1418.7
1351.73
1315.23
1295.07
1283.67
1277.34
1274.32
1273.72
1274.94
1277.57
1281.25
1285.71
1290.68
1295.94
1301.3
1306.58
1311.67
1316.5
1321.14
1325.9
1331.76
1341.25
1361.24
1412.31
1565.22
2105.51
2509.08
2060.24
1745.72
1548.52
1433.23
1368.78
1333.21
1313.03
1301.03
1293.72
1289.5
1287.55
1287.36
1288.54
1290.8
1293.84
1297.42
1301.34
1305.4
1309.42
1313.3
1316.96
1320.48
1324.19
1329.06
1337.67
1356.94
1407.62
1560.78
2098
2482.46
2050.25
1744.54
1552.83
1441.37
1379.47
1345.45
1326.07
1314.27
1306.72
1301.93
1299.17
1298.03
1298.17
1299.32
1301.24
1303.69
1306.48
1309.42
1312.36
1315.18
1317.82
1320.37
1323.16
1327.2
1335.08
1353.81
1404.32
1558.06
2093.34
2465.16
2044.26
1743.62
1554.78
1445.67
1385.74
1353.26
1334.94
1323.74
1316.38
1311.45
1308.3
1306.57
1305.99
1306.34
1307.39
1308.94
1310.81
1312.83
1314.86
1316.79
1318.57
1320.3
1322.34
1325.7
1333.02
1351.38
1401.92
1556.5
2090.36
2452.98
2040.97
1743.48
1555.86
1447.95
1389.35
1358.13
1340.85
1330.37
1323.41
1318.58
1315.29
1313.24
1312.19
1311.96
1312.36
1313.21
1314.36
1315.63
1316.92
1318.12
1319.2
1320.26
1321.69
1324.52
1331.42
1349.57
1400.3
1555.89
2088.75
2444.27
2039.63
1744.16
1556.74
1449.2
1391.35
1361.04
1344.63
1334.86
1328.36
1323.76
1320.49
1318.29
1316.95
1316.33
1316.25
1316.57
1317.14
1317.83
1318.52
1319.14
1319.65
1320.18
1321.13
1323.57
1330.18
1348.23
1399.27
1556
2088.12
2437.84
2039.61
1745.56
1557.71
1449.95
1392.38
1362.67
1346.94
1337.78
1331.74
1327.41
1324.25
1322
1320.5
1319.61
1319.2
1319.12
1319.26
1319.49
1319.72
1319.87
1319.94
1320.06
1320.65
1322.79
1329.22
1347.26
1398.7
1556.65
2088.18
2432.94
2040.49
1747.5
1558.86
1450.47
1392.84
1363.47
1348.23
1339.57
1333.94
1329.89
1326.88
1324.65
1323.07
1322.01
1321.36
1320.99
1320.81
1320.69
1320.55
1320.35
1320.08
1319.89
1320.21
1322.15
1328.48
1346.6
1398.49
1557.69
2088.74
2429.08
2041.96
1749.85
1560.21
1450.94
1392.99
1363.72
1348.83
1340.55
1335.26
1331.48
1328.62
1326.46
1324.85
1323.69
1322.88
1322.31
1321.88
1321.5
1321.1
1320.62
1320.1
1319.69
1319.82
1321.63
1327.91
1346.16
1398.55
1559.03
2089.63
2425.94
2043.82
1752.49
1561.75
1451.41
1392.95
1363.64
1348.94
1340.95
1335.95
1332.39
1329.69
1327.61
1326.01
1324.8
1323.89
1323.18
1322.58
1322.01
1321.41
1320.74
1320.03
1319.46
1319.47
1321.2
1327.49
1345.9
1398.82
1560.58
2090.74
2423.28
2045.9
1755.34
1563.45
1451.92
1392.83
1363.34
1348.73
1340.95
1336.17
1332.81
1330.26
1328.26
1326.69
1325.47
1324.5
1323.69
1322.98
1322.28
1321.53
1320.73
1319.89
1319.21
1319.14
1320.84
1327.18
1345.77
1399.24
1562.27
2092
2420.95
2048.12
1758.31
1565.27
1452.5
1392.67
1362.91
1348.31
1340.66
1336.06
1332.86
1330.44
1328.53
1327.01
1325.79
1324.79
1323.93
1323.14
1322.35
1321.52
1320.62
1319.7
1318.95
1318.84
1320.55
1326.95
1345.75
1399.78
1564.06
2093.34
2418.85
2050.39
1761.36
1567.2
1453.14
1392.51
1362.4
1347.74
1340.18
1335.71
1332.65
1330.33
1328.5
1327.04
1325.84
1324.84
1323.95
1323.12
1322.28
1321.39
1320.43
1319.47
1318.69
1318.57
1320.3
1326.78
1345.81
1400.4
1565.93
2094.74
2416.91
2052.67
1764.45
1569.2
1453.85
1392.37
1361.86
1347.08
1339.56
1335.19
1332.23
1330.02
1328.27
1326.86
1325.69
1324.7
1323.82
1322.97
1322.1
1321.18
1320.2
1319.21
1318.42
1318.31
1320.08
1326.67
1345.92
1401.08
1567.83
2096.16
2415.08
2054.93
1767.55
1571.27
1454.62
1392.26
1361.3
1346.37
1338.85
1334.55
1331.68
1329.55
1327.88
1326.52
1325.4
1324.43
1323.55
1322.71
1321.84
1320.91
1319.92
1318.93
1318.15
1318.07
1319.9
1326.6
1346.08
1401.81
1569.76
2097.59
2413.31
2057.13
1770.63
1573.39
1455.45
1392.18
1360.74
1345.63
1338.08
1333.83
1331.03
1328.98
1327.37
1326.07
1324.99
1324.06
1323.2
1322.37
1321.51
1320.59
1319.61
1318.64
1317.89
1317.85
1319.74
1326.55
1346.28
1402.56
1571.71
2099.02
2411.59
2059.27
1773.69
1575.54
1456.33
1392.13
1360.19
1344.87
1337.27
1333.05
1330.32
1328.33
1326.78
1325.53
1324.5
1323.6
1322.78
1321.97
1321.14
1320.24
1319.28
1318.34
1317.62
1317.63
1319.59
1326.52
1346.49
1403.34
1573.65
2100.43
2409.9
2061.34
1776.71
1577.71
1457.26
1392.13
1359.66
1344.11
1336.45
1332.24
1329.55
1327.62
1326.13
1324.94
1323.95
1323.1
1322.31
1321.54
1320.73
1319.86
1318.94
1318.03
1317.35
1317.42
1319.46
1326.51
1346.72
1404.14
1575.6
2101.82
2408.22
2063.33
1779.69
1579.91
1458.23
1392.16
1359.15
1343.35
1335.61
1331.41
1328.76
1326.88
1325.44
1324.3
1323.36
1322.55
1321.8
1321.07
1320.3
1319.47
1318.58
1317.72
1317.09
1317.21
1319.33
1326.51
1346.96
1404.94
1577.54
2103.2
2406.56
2065.24
1782.62
1582.11
1459.24
1392.22
1358.66
1342.6
1334.78
1330.57
1327.95
1326.11
1324.72
1323.63
1322.74
1321.97
1321.27
1320.58
1319.85
1319.06
1318.22
1317.4
1316.83
1317.01
1319.21
1326.51
1347.21
1405.75
1579.46
2104.55
2404.9
2067.07
1785.5
1584.32
1460.28
1392.32
1358.2
1341.87
1333.95
1329.73
1327.13
1325.34
1323.99
1322.95
1322.1
1321.38
1320.72
1320.08
1319.39
1318.65
1317.85
1317.09
1316.56
1316.81
1319.1
1326.52
1347.46
1406.57
1581.38
2105.87
2403.24
2068.83
1788.32
1586.53
1461.35
1392.45
1357.77
1341.16
1333.13
1328.89
1326.31
1324.55
1323.25
1322.25
1321.45
1320.78
1320.16
1319.56
1318.92
1318.23
1317.48
1316.77
1316.3
1316.62
1318.98
1326.53
1347.71
1407.38
1583.28
2107.18
2401.57
2070.5
1791.08
1588.74
1462.45
1392.62
1357.35
1340.46
1332.32
1328.05
1325.5
1323.77
1322.5
1321.55
1320.79
1320.16
1319.6
1319.04
1318.45
1317.8
1317.11
1316.45
1316.04
1316.42
1318.87
1326.54
1347.97
1408.19
1585.16
2108.45
2399.91
2072.1
1793.8
1590.94
1463.57
1392.81
1356.97
1339.78
1331.52
1327.23
1324.68
1322.98
1321.76
1320.84
1320.13
1319.55
1319.03
1318.52
1317.98
1317.38
1316.74
1316.13
1315.78
1316.22
1318.75
1326.55
1348.22
1409.01
1587.03
2109.71
2398.25
2073.63
1796.45
1593.13
1464.71
1393.03
1356.61
1339.12
1330.74
1326.41
1323.87
1322.2
1321.01
1320.14
1319.47
1318.93
1318.46
1318
1317.5
1316.95
1316.36
1315.81
1315.51
1316.03
1318.64
1326.56
1348.47
1409.82
1588.88
2110.94
2396.58
2075.1
1799.06
1595.32
1465.88
1393.28
1356.27
1338.48
1329.97
1325.61
1323.08
1321.43
1320.28
1319.44
1318.81
1318.32
1317.89
1317.47
1317.03
1316.53
1315.99
1315.49
1315.25
1315.83
1318.52
1326.57
1348.73
1410.63
1590.72
2112.14
2394.91
2076.49
1801.61
1597.5
1467.06
1393.56
1355.96
1337.86
1329.22
1324.81
1322.29
1320.66
1319.54
1318.74
1318.16
1317.71
1317.32
1316.95
1316.55
1316.1
1315.61
1315.16
1314.99
1315.63
1318.4
1326.58
1348.98
1411.43
1592.54
2113.32
2393.24
2077.83
1804.1
1599.66
1468.27
1393.86
1355.67
1337.26
1328.48
1324.03
1321.51
1319.91
1318.82
1318.05
1317.51
1317.1
1316.76
1316.43
1316.08
1315.68
1315.24
1314.84
1314.72
1315.43
1318.28
1326.58
1349.22
1412.24
1594.35
2114.48
2391.57
2079.1
1806.55
1601.81
1469.48
1394.18
1355.4
1336.67
1327.76
1323.26
1320.74
1319.16
1318.1
1317.37
1316.86
1316.49
1316.2
1315.92
1315.61
1315.26
1314.87
1314.52
1314.46
1315.23
1318.16
1326.58
1349.47
1413.04
1596.14
2115.62
2389.89
2080.32
1808.94
1603.95
1470.71
1394.53
1355.16
1336.11
1327.05
1322.51
1319.98
1318.42
1317.39
1316.69
1316.22
1315.9
1315.64
1315.41
1315.15
1314.84
1314.5
1314.21
1314.19
1315.02
1318.04
1326.58
1349.71
1413.84
1597.91
2116.73
2388.22
2081.48
1811.29
1606.07
1471.95
1394.9
1354.93
1335.56
1326.35
1321.77
1319.24
1317.69
1316.69
1316.03
1315.59
1315.3
1315.09
1314.9
1314.68
1314.42
1314.13
1313.89
1313.93
1314.82
1317.91
1326.58
1349.95
1414.63
1599.67
2117.83
2386.54
2082.59
1813.59
1608.18
1473.21
1395.29
1354.73
1335.03
1325.67
1321.03
1318.5
1316.97
1315.99
1315.36
1314.96
1314.71
1314.54
1314.39
1314.22
1314.01
1313.76
1313.57
1313.66
1314.62
1317.79
1326.58
1350.19
1415.42
1601.41
2118.9
2384.87
2083.64
1815.84
1610.27
1474.47
1395.7
1354.54
1334.52
1325.01
1320.32
1317.78
1316.26
1315.31
1314.71
1314.35
1314.13
1314
1313.89
1313.76
1313.59
1313.39
1313.25
1313.4
1314.41
1317.66
1326.57
1350.43
1416.21
1603.14
2119.95
2383.2
2084.66
1818.04
1612.34
1475.74
1396.14
1354.38
1334.02
1324.36
1319.61
1317.06
1315.56
1314.63
1314.06
1313.73
1313.55
1313.46
1313.39
1313.31
1313.18
1313.03
1312.93
1313.13
1314.2
1317.53
1326.56
1350.67
1417
1604.85
2120.98
2381.53
2085.62
1820.2
1614.4
1477.03
1396.59
1354.24
1333.54
1323.72
1318.91
1316.35
1314.87
1313.96
1313.42
1313.12
1312.98
1312.93
1312.9
1312.86
1312.77
1312.66
1312.61
1312.87
1314
1317.39
1326.55
1350.9
1417.78
1606.55
2122
2379.86
2086.54
1822.32
1616.44
1478.32
1397.06
1354.11
1333.07
1323.09
1318.23
1315.66
1314.18
1313.3
1312.79
1312.52
1312.42
1312.4
1312.41
1312.41
1312.37
1312.3
1312.3
1312.6
1313.79
1317.26
1326.54
1351.14
1418.56
1608.24
2122.99
2378.19
2087.43
1824.39
1618.46
1479.61
1397.54
1354
1332.62
1322.48
1317.55
1314.97
1313.51
1312.65
1312.16
1311.93
1311.86
1311.87
1311.92
1311.96
1311.96
1311.94
1311.98
1312.33
1313.58
1317.13
1326.52
1351.37
1419.34
1609.91
2123.97
2376.53
2088.27
1826.43
1620.47
1480.92
1398.05
1353.91
1332.19
1321.88
1316.89
1314.3
1312.84
1312
1311.54
1311.34
1311.3
1311.35
1311.44
1311.52
1311.56
1311.58
1311.67
1312.07
1313.37
1316.99
1326.5
1351.6
1420.12
1611.57
2124.93
2374.87
2089.07
1828.42
1622.45
1482.23
1398.57
1353.84
1331.77
1321.29
1316.24
1313.63
1312.18
1311.36
1310.93
1310.76
1310.75
1310.84
1310.96
1311.08
1311.16
1311.22
1311.35
1311.8
1313.16
1316.85
1326.49
1351.83
1420.9
1613.21
2125.87
2373.21
2089.83
1830.37
1624.43
1483.54
1399.1
1353.78
1331.36
1320.72
1315.59
1312.97
1311.53
1310.73
1310.32
1310.18
1310.21
1310.33
1310.49
1310.64
1310.76
1310.86
1311.04
1311.53
1312.94
1316.71
1326.47
1352.06
1421.67
1614.84
2126.8
2371.56
2090.56
1832.29
1626.38
1484.86
1399.65
1353.74
1330.97
1320.15
1314.96
1312.32
1310.89
1310.11
1309.72
1309.61
1309.66
1309.82
1310.02
1310.2
1310.36
1310.51
1310.72
1311.27
1312.73
1316.57
1326.45
1352.28
1422.44
1616.46
2127.7
2369.91
2091.26
1834.17
1628.31
1486.18
1400.22
1353.72
1330.59
1319.6
1314.34
1311.68
1310.25
1309.49
1309.13
1309.04
1309.13
1309.32
1309.55
1309.77
1309.97
1310.15
1310.41
1311
1312.52
1316.43
1326.42
1352.51
1423.21
1618.06
2128.6
2368.26
2091.92
1836.01
1630.23
1487.5
1400.79
1353.71
1330.23
1319.06
1313.72
1311.05
1309.63
1308.88
1308.54
1308.48
1308.6
1308.82
1309.08
1309.34
1309.58
1309.8
1310.1
1310.73
1312.3
1316.29
1326.4
1352.73
1423.97
1619.65
2129.47
2366.62
2092.56
1837.82
1632.13
1488.83
1401.38
1353.72
1329.88
1318.53
1313.12
1310.42
1309.01
1308.27
1307.96
1307.93
1308.07
1308.32
1308.62
1308.92
1309.19
1309.45
1309.79
1310.46
1312.09
1316.14
1326.38
1352.96
1424.74
1621.23
2130.33
2364.98
2093.16
1839.59
1634.01
1490.16
1401.99
1353.74
1329.54
1318.01
1312.52
1309.8
1308.39
1307.68
1307.39
1307.38
1307.55
1307.83
1308.16
1308.49
1308.8
1309.09
1309.48
1310.2
1311.87
1316
1326.35
1353.18
1425.5
1622.8
2131.18
2363.35
2093.73
1841.33
1635.88
1491.48
1402.6
1353.77
1329.22
1317.5
1311.94
1309.19
1307.79
1307.08
1306.82
1306.83
1307.03
1307.34
1307.71
1308.07
1308.41
1308.75
1309.17
1309.93
1311.66
1315.85
1326.32
1353.41
1426.26
1624.35
2132.01
2361.72
2094.28
1843.04
1637.72
1492.82
1403.23
1353.82
1328.9
1317
1311.36
1308.59
1307.19
1306.5
1306.25
1306.29
1306.52
1306.86
1307.25
1307.65
1308.03
1308.4
1308.86
1309.66
1311.44
1315.7
1326.3
1353.63
1427.02
1625.89
2132.82
2360.1
2094.8
1844.71
1639.55
1494.15
1403.87
1353.89
1328.6
1316.51
1310.79
1308
1306.59
1305.92
1305.69
1305.75
1306.01
1306.38
1306.8
1307.23
1307.64
1308.05
1308.55
1309.4
1311.22
1315.56
1326.27
1353.85
1427.78
1627.42
2133.62
2358.48
2095.29
1846.36
1641.37
1495.48
1404.52
1353.96
1328.32
1316.03
1310.23
1307.41
1306.01
1305.35
1305.14
1305.22
1305.5
1305.9
1306.36
1306.82
1307.26
1307.7
1308.24
1309.13
1311.01
1315.41
1326.24
1354.08
1428.53
1628.94
2134.41
2356.86
2095.76
1847.97
1643.16
1496.81
1405.18
1354.05
1328.04
1315.56
1309.67
1306.83
1305.42
1304.78
1304.59
1304.7
1305
1305.43
1305.91
1306.41
1306.88
1307.36
1307.93
1308.86
1310.79
1315.26
1326.21
1354.3
1429.29
1630.45
2135.18
2355.25
2096.2
1849.55
1644.94
1498.14
1405.85
1354.16
1327.77
1315.1
1309.13
1306.26
1304.85
1304.21
1304.04
1304.17
1304.51
1304.96
1305.47
1306
1306.5
1307.02
1307.62
1308.6
1310.57
1315.11
1326.18
1354.52
1430.04
1631.94
2135.94
2353.64
2096.62
1851.11
1646.7
1499.47
1406.52
1354.27
1327.52
1314.65
1308.59
1305.69
1304.28
1303.66
1303.5
1303.66
1304.01
1304.49
1305.04
1305.59
1306.13
1306.67
1307.32
1308.33
1310.35
1314.96
1326.15
1354.74
1430.79
1633.42
2136.68
2352.04
2097.02
1852.64
1648.45
1500.8
1407.21
1354.4
1327.28
1314.21
1308.06
1305.13
1303.72
1303.1
1302.97
1303.14
1303.52
1304.03
1304.6
1305.18
1305.75
1306.33
1307.01
1308.06
1310.14
1314.81
1326.12
1354.96
1431.54
1634.9
2137.42
2350.45
2097.39
1854.14
1650.18
1502.12
1407.91
1354.54
1327.05
1313.78
1307.54
1304.57
1303.16
1302.56
1302.44
1302.63
1303.04
1303.57
1304.17
1304.78
1305.38
1305.99
1306.71
1307.8
1309.92
1314.66
1326.09
1355.19
1432.29
1636.36
2138.13
2348.86
2097.75
1855.61
1651.89
1503.45
1408.61
1354.69
1326.83
1313.36
1307.02
1304.03
1302.61
1302.02
1301.91
1302.13
1302.56
1303.11
1303.74
1304.38
1305.01
1305.65
1306.4
1307.53
1309.7
1314.51
1326.06
1355.41
1433.03
1637.81
2138.84
2347.27
2098.08
1857.06
1653.59
1504.77
1409.32
1354.85
1326.62
1312.94
1306.52
1303.49
1302.06
1301.48
1301.39
1301.63
1302.08
1302.66
1303.31
1303.98
1304.64
1305.32
1306.1
1307.27
1309.48
1314.36
1326.02
1355.63
1433.78
1639.25
2139.54
2345.69
2098.4
1858.48
1655.27
1506.09
1410.04
1355.02
1326.42
1312.54
1306.02
1302.95
1301.52
1300.95
1300.87
1301.13
1301.6
1302.21
1302.89
1303.58
1304.27
1304.98
1305.8
1307
1309.26
1314.2
1325.99
1355.85
1434.52
1640.68
2140.22
2344.12
2098.69
1859.88
1656.93
1507.41
1410.77
1355.2
1326.23
1312.14
1305.52
1302.42
1300.99
1300.42
1300.36
1300.64
1301.13
1301.76
1302.46
1303.19
1303.91
1304.64
1305.49
1306.74
1309.04
1314.05
1325.96
1356.08
1435.26
1642.09
2140.89
2342.55
2098.97
1861.26
1658.58
1508.73
1411.51
1355.4
1326.05
1311.75
1305.04
1301.9
1300.46
1299.9
1299.85
1300.15
1300.66
1301.32
1302.04
1302.79
1303.54
1304.31
1305.19
1306.47
1308.82
1313.9
1325.93
1356.3
1436
1643.5
2141.55
2340.98
2099.23
1862.61
1660.21
1510.04
1412.25
1355.6
1325.88
1311.37
1304.56
1301.38
1299.93
1299.38
1299.35
1299.66
1300.2
1300.87
1301.63
1302.4
1303.18
1303.98
1304.89
1306.21
1308.6
1313.75
1325.9
1356.52
1436.74
1644.9
2142.19
2339.43
2099.47
1863.93
1661.82
1511.35
1413
1355.82
1325.72
1311
1304.08