/*--------------------------------*- C++ -*----------------------------------*\
| =========                 |                                                 |
| \\      /  F ield         | OpenFOAM: The Open Source CFD Toolbox           |
|  \\    /   O peration     | Version:  2.3.x                                 |
|   \\  /    A nd           | Web:      www.OpenFOAM.org                      |
|    \\/     M anipulation  |                                                 |
\*---------------------------------------------------------------------------*/
FoamFile
{
    version     2.0;
    format      ascii;
    class       volScalarField;
    location    "0";
    object      T;
}
// * * * * * * * * * * * * * * * * * * * * * * * * * * * * * * * * * * * * * //

dimensions      [0 0 0 1 0 0 0];

internalField   nonuniform List<scalar> 
6300
(
481.3538169
473.0663643
468.9672746
466.9639545
466.1591228
465.9196609
465.8690543
465.8617189
465.8611985
465.8613816
465.8615688
465.8617142
465.8618248
465.8619086
465.8619716
465.8620181
465.8620515
465.8620741
465.8620879
465.8620942
465.8620941
465.8620883
465.8620772
465.8620612
465.8620404
465.8620181
465.8620172
465.8621983
465.8645379
465.9776573
486.9623899
478.2226407
472.0403581
468.3133186
466.5986086
466.0302383
465.8973848
465.8757008
465.8734372
465.8735003
465.873709
465.8738763
465.8740007
465.8740907
465.8741535
465.8741943
465.8742174
465.8742257
465.8742218
465.8742073
465.8741836
465.8741517
465.874112
465.8740649
465.8740113
465.8739593
465.873962
465.874401
465.8803711
466.1066008
488.5283669
480.3784227
473.7574311
469.286167
466.9942167
466.1493244
465.9302421
465.8905458
465.8857274
465.8855738
465.8858031
465.885999
465.8861436
465.8862457
465.8863137
465.886354
465.8863716
465.8863701
465.8863526
465.8863214
465.8862779
465.8862234
465.8861586
465.8860838
465.8860013
465.8859253
465.8859467
465.8867432
465.8975845
466.2367446
489.0664639
481.3503431
474.7048931
469.9349466
467.3095589
466.2608577
465.9646966
465.9060704
465.8981515
465.8976797
465.8979152
465.8981353
465.8982964
465.8984077
465.8984785
465.8985163
465.8985267
465.8985142
465.8984823
465.8984335
465.8983698
465.8982926
465.8982027
465.8981008
465.8979908
465.8978948
465.8979513
465.8992283
465.9161719
466.3680652
489.2842774
481.8125316
475.2266487
470.3514316
467.5455012
466.3575126
465.9984816
465.9219579
465.9106985
465.9098289
465.9100552
465.9102933
465.9104664
465.9105826
465.9106526
465.9106847
465.9106855
465.9106598
465.9106116
465.9105438
465.9104588
465.9103581
465.9102427
465.9101141
465.9099779
465.9098665
465.9099788
465.9118834
465.9361561
466.5005682
489.3773325
482.0300212
475.5058519
470.6094701
467.7147166
466.4373386
466.0301951
465.9379151
465.9233356
465.9220177
465.9222215
465.9224723
465.9226531
465.9227705
465.9228364
465.92286
465.9228486
465.9228076
465.9227415
465.9226535
465.9225462
465.9224214
465.9222806
465.9221257
465.9219652
465.9218439
465.922037
465.9247391
465.9575595
466.6342694
489.4120058
482.1181374
475.6412556
470.76059
467.8315294
466.5011422
466.0591491
465.9537263
465.9360352
465.9342464
465.9344162
465.9346743
465.9348585
465.9349732
465.9350315
465.9350436
465.9350174
465.934959
465.9348731
465.9347634
465.9346328
465.9344833
465.9343169
465.9341364
465.9339535
465.9338288
465.9341328
465.9378251
465.9804044
466.7691842
489.4157223
482.1327886
475.6884864
470.8395491
467.9085947
466.5509243
466.0851463
465.9692498
465.9487728
465.9465144
465.9466409
465.9469008
465.9470839
465.947192
465.9472393
465.9472368
465.9471931
465.9471149
465.9470074
465.9468745
465.9467195
465.9465448
465.9463526
465.9461471
465.9459439
465.9458231
465.9462737
465.9511713
466.0047144
466.9053299
489.4017159
482.1036991
475.6803169
470.8696577
467.9560931
466.5890159
466.1082888
465.9844079
465.9615297
465.9588211
465.9588968
465.9591532
465.9593306
465.9594282
465.9594607
465.9594404
465.9593766
465.9592763
465.9591452
465.9589876
465.9588071
465.9586064
465.9583884
465.9581585
465.9579373
465.9578289
465.9584678
465.9648082
466.0305135
467.0427248
489.3771663
482.047937
475.6369017
470.8666673
467.9818794
466.6176592
466.1288405
465.9991717
465.974293
465.9711662
465.9711856
465.9714327
465.9716
465.9716828
465.971697
465.9716558
465.9715689
465.9714442
465.9712875
465.9711036
465.9708964
465.970669
465.9704249
465.9701711
465.9699344
465.9698483
465.970724
465.9787669
466.0578264
467.1813887
489.3463102
481.9759046
475.5710994
470.8413503
467.9918963
466.6388344
466.1471355
466.0135464
465.9870555
465.98355
465.9835087
465.9837409
465.9838932
465.983957
465.9839492
465.9838837
465.9837709
465.9836192
465.9834349
465.9832231
465.9829879
465.982733
465.9824625
465.9821854
465.9819357
465.9818836
465.9830519
465.9930791
466.0866783
467.3213421
489.3117965
481.8942249
475.4913553
470.8011645
467.9905988
466.6542114
466.1635231
466.0275591
465.9998148
465.9959733
465.9958679
465.9960794
465.9962116
465.9962521
465.9962183
465.996125
465.9959835
465.9958022
465.9955881
465.9953466
465.9950821
465.9947987
465.9945014
465.9942014
465.9939418
465.9939373
465.9954619
466.0077768
466.1170953
467.4626063
489.2753481
481.807248
475.4033399
470.7513291
467.9813131
466.6651597
466.1783371
466.0412496
466.0125718
466.0084373
466.008265
466.0084497
466.0085566
466.0085691
466.0085053
466.0083808
466.0082073
466.0079938
466.0077476
466.0074745
466.0071792
466.0068663
466.0065416
466.0062191
466.0059531
466.0060119
466.0079653
466.0228932
466.1491038
467.6052035
489.2381162
481.717893
475.3109217
470.6955282
467.9665187
466.6727839
466.1918803
466.0546638
466.0253306
466.020944
466.020702
466.0208536
466.0209295
466.0209092
466.0208113
466.0206517
466.020443
466.0201945
466.0199138
466.019607
466.0192793
466.0189356
466.0185829
466.0182384
466.01797
466.0181105
466.0205742
466.0384616
466.1827311
467.7491564
489.2008836
481.6281457
475.216767
470.6363783
467.9480632
466.6779642
466.2044182
466.0678497
466.0380967
466.0334953
466.0331809
466.0332929
466.0333319
466.0332738
466.0331371
466.0329387
466.0326913
466.0324047
466.032087
466.0317443
466.0313824
466.0310066
466.030625
466.030259
466.0299929
466.0302366
466.0333018
466.0545166
466.2180051
467.8944883
489.1641877
481.5393655
475.122723
470.5757447
467.9273226
466.6813969
466.2161792
466.0808537
466.0508774
466.046094
466.0457039
466.0457693
466.0457653
466.0456638
466.0454837
466.0452422
466.0449526
466.0446248
466.0442672
466.0438864
466.0434882
466.0430787
466.0426674
466.0422805
466.0420224
466.0423939
466.0461621
466.0710929
466.2549542
468.0412231
489.128399
481.4524835
475.0300701
470.5149572
467.905321
466.6836298
466.2273564
466.09372
466.0636802
466.0587429
466.0582733
466.0582848
466.0582311
466.0580806
466.0578521
466.0575632
466.0572273
466.056855
466.0564546
466.056033
466.0555964
466.0551515
466.0547095
466.0543025
466.0540589
466.0545868
466.0591702
466.0882266
466.2936079
468.1893852
489.0937722
481.3681336
474.93969
470.4549615
467.8828188
466.6850916
466.2381112
466.1064888
466.0765135
466.071445
466.0708914
466.0708412
466.0707309
466.0705253
466.0702431
466.0699021
466.069516
466.0690954
466.068649
466.0681838
466.0677065
466.0672244
466.0667506
466.0663245
466.0661032
466.06682
466.0723422
466.105954
466.3339961
468.3389998
489.0604807
481.2867401
474.8521822
470.3964252
467.860379
466.686117
466.2485779
466.1191965
466.0893855
466.0842036
466.0835606
466.0834406
466.0832663
466.0829992
466.0826576
466.0822596
466.0818188
466.0813461
466.0808502
466.0803385
466.0798179
466.0792965
466.0787898
466.078346
466.0781562
466.079099
466.0856952
466.1243125
466.3761496
468.4900922
489.0286407
481.2085794
474.7679449
470.3398137
467.8384158
466.6869659
466.2588673
466.131876
466.1023043
466.0970221
466.0962833
466.0960849
466.0958387
466.0955033
466.0950965
466.0946361
466.094136
466.093607
466.093058
466.0924966
466.0919298
466.0913669
466.0908263
466.0903664
466.0902189
466.0914297
466.0992475
466.1433402
466.4200998
468.6426884
488.9983276
481.1338225
474.6872316
470.2854445
467.8172318
466.68784
466.2690705
466.1445559
466.1152782
466.109904
466.1090622
466.1087761
466.1084499
466.1080389
466.1075605
466.1070322
466.1064678
466.1058781
466.1052721
466.1046573
466.1040415
466.1034347
466.102859
466.1023852
466.1022928
466.1038189
466.1130184
466.1630762
466.4658794
468.7968152
488.9695879
481.0625652
474.6101919
470.2335269
467.797045
466.6888946
466.2792624
466.1572619
466.1283148
466.122853
466.1218999
466.1215164
466.1211013
466.1206072
466.1200504
466.1194482
466.1188142
466.1181591
466.1174918
466.1168201
466.1161519
466.1154988
466.1148869
466.1144021
466.1143793
466.1162737
466.1270284
466.1835604
466.5135214
468.9524995
488.9424475
480.9948503
474.5369011
470.184191
467.7780099
466.6902491
466.2895043
466.1700165
466.1414218
466.1358728
466.134799
466.1343077
466.1337945
466.1332092
466.1325669
466.1318845
466.1311753
466.1304497
466.1297166
466.1289839
466.12826
466.1275579
466.1269089
466.1264165
466.1264805
466.1288024
466.1412992
466.2048335
466.5630602
469.109769
488.916918
480.9306827
474.4673813
470.1375089
467.760233
466.6919944
466.2998464
466.1828395
466.1546066
466.1489671
466.1477622
466.1471522
466.1465312
466.145846
466.1451107
466.1443414
466.143551
466.1427495
466.1419458
466.1411479
466.1403646
466.1396107
466.1389238
466.1384281
466.1385984
466.1414138
466.1558534
466.2269374
466.6145307
469.2686519
488.893001
480.8700414
474.4016169
470.093511
467.7437848
466.6941996
466.3103299
466.1957487
466.1678761
466.1621397
466.1607924
466.1600521
466.1593129
466.1585189
466.1576826
466.1568193
466.1559412
466.1550582
466.1541787
466.1533109
466.1524643
466.1516559
466.1509303
466.1504367
466.1507358
466.1541175
466.1707153
466.2499147
466.6679693
469.4291767
488.8706912
480.8128872
474.3395659
470.0521967
467.7287087
466.6969163
466.3209888
466.2087597
466.1812371
466.1753946
466.1738922
466.1730094
466.1721412
466.1712288
466.170283
466.1693181
466.1683457
466.167375
466.1664144
466.1654719
466.1645578
466.1636919
466.1629273
466.1624422
466.1628957
466.1669241
466.1859102
466.2738092
466.7234128
469.5913729
488.8499795
480.7591696
474.2811689
470.0135444
467.715028
466.7001832
466.331851
466.2218866
466.1946964
466.1887357
466.1870647
466.1860265
466.1850178
466.1839768
466.1829127
466.1818382
466.1807642
466.1796994
466.1786518
466.1776294
466.1766436
466.1757171
466.1749136
466.1744446
466.1750815
466.1798452
466.2014647
466.2986659
466.7808996
469.7552701
488.830854
480.7088306
474.2263546
469.977517
467.702751
466.7040283
466.3429396
466.235142
466.2082605
466.2021669
466.2003127
466.1991054
466.1979441
466.196764
466.195572
466.1943796
466.1931964
466.1920306
466.1908898
466.1897822
466.1887201
466.18773
466.1868878
466.186444
466.1872972
466.1928931
466.2174069
466.3245306
466.8404691
469.9208989
488.8133014
480.6618083
474.1750446
469.9440674
467.6918754
466.7084718
466.3542742
466.2485376
466.2219355
466.2156923
466.2136391
466.2122484
466.2109218
466.2095914
466.2082615
466.2069421
466.2056417
466.2043677
466.2031273
466.2019286
466.2007854
466.1997287
466.1988487
466.1984409
466.1995474
466.2060814
466.233766
466.3514506
466.9021616
470.0882901
488.7973087
480.6180393
474.1271569
469.9131419
467.6823908
466.7135279
466.365871
466.262084
466.2357278
466.2293161
466.2270471
466.2254577
466.2239524
466.2224598
466.2209816
466.2195258
466.2180998
466.2167099
466.2153628
466.214067
466.2128377
466.2117114
466.2107951
466.2104359
466.211837
466.2194245
466.250573
466.3794742
466.9660189
470.2574754
488.7828631
480.5774604
474.0826081
469.8846829
467.6742818
466.7192064
466.3777442
466.2757912
466.2496436
466.2430424
466.2405397
466.2387356
466.2370375
466.2353703
466.2337326
466.2321305
466.2305697
466.2290558
466.2275949
466.2261956
466.2248751
466.2236763
466.2227258
466.2224297
466.2241719
466.2329382
466.2678601
466.4086512
467.032084
470.4284869
488.7699528
480.5400097
474.0413152
469.8586309
467.6675289
466.7255134
466.3899058
466.2896686
466.2636889
466.2568754
466.2541199
466.2520843
466.2501786
466.2483236
466.2465147
466.2447558
466.2430509
466.2414044
466.2398219
466.2383124
466.2368954
466.2356213
466.2346397
466.2344237
466.2365585
466.2466393
466.2856613
466.4390325
467.1004013
470.6013575
488.7585676
480.5056279
474.0031967
469.8349261
467.6621106
466.7324528
466.4023668
466.303725
466.2778699
466.2708195
466.267791
466.2655061
466.2633772
466.2613205
466.2593282
466.2574014
466.2555423
466.2537542
466.2520421
466.2504154
466.2488963
466.2475445
466.2465356
466.2464192
466.2490039
466.260546
466.304012
466.4706708
467.1710166
470.7761207
488.7486986
480.4742576
473.9681733
469.8135087
467.6580039
466.7400266
466.4151367
466.3179691
466.2921927
466.2848789
466.2815561
466.2790033
466.2766346
466.2743619
466.2721731
466.2700667
466.268043
466.2661037
466.2642534
466.2625022
466.2608756
466.2594437
466.2584126
466.2584181
466.261516
466.2746778
466.3229495
466.50362
467.243977
470.9528105
488.7403386
480.4458447
473.9361684
469.7943204
467.6551851
466.7482358
466.4282245
466.3324093
466.3066635
466.2990582
466.2954184
466.292578
466.2899524
466.2874481
466.2850493
466.282751
466.2805515
466.2784512
466.2764538
466.2745704
466.2728306
466.2713168
466.2702698
466.2704227
466.2741038
466.2890554
466.3425126
466.5379358
467.3193314
471.1314618
488.7334823
480.4203375
473.9071077
469.7773038
467.6536305
466.7570802
466.4416385
466.3470538
466.3212885
466.3133618
466.3093811
466.3062324
466.3033316
466.3005799
466.2979565
466.2954534
466.2930665
466.2907946
466.2886409
466.2866174
466.2847587
466.2831615
466.2821065
466.2824356
466.2867768
466.3037013
466.3627423
466.5736755
467.3971305
471.3121101
488.7281254
480.3976863
473.8809187
469.7624029
467.6533162
466.7665594
466.4553868
466.3619107
466.3360738
466.3277943
466.3234474
466.3199686
466.3167736
466.3137573
466.3108943
466.3081729
466.3055864
466.3031318
466.300812
466.2986403
466.296657
466.2949756
466.293922
466.29446
466.2995458
466.3186394
466.3836811
466.6108983
467.4774265
471.4947916
488.7242652
480.3778428
473.8575305
469.7495624
467.6542183
466.7766724
466.4694769
466.3769882
466.3510258
466.3423601
466.3376205
466.3337887
466.3302792
466.3269807
466.3238622
466.3209081
466.318109
466.3154603
466.3129642
466.310636
466.3085226
466.3067568
466.305716
466.3064996
466.3124227
466.3338953
466.405374
466.6496654
467.5602736
471.6795433
488.7218991
480.3607581
473.8368719
469.738727
467.6563129
466.787418
466.4839163
466.3922943
466.3661508
466.3570638
466.3519034
466.3476944
466.3438494
466.3402498
466.336859
466.3336573
466.3306322
466.3277774
466.3250945
466.3226011
466.3203521
466.3185026
466.3174881
466.3185589
466.3254204
466.3494965
466.427868
466.6900402
467.6457281
471.8664031
488.7210239
480.3463816
473.8188696
469.7298401
467.6595751
466.7987942
466.4987122
466.4078369
466.3814551
466.3719099
466.3662992
466.3616874
466.3574845
466.3535642
466.3498835
466.3464185
466.3431533
466.3400797
466.3371992
466.3345319
466.3321423
466.3302108
466.3292385
466.3306428
466.3385532
466.3654723
466.4512125
466.7320881
467.7338486
472.0554095
488.721635
480.3346569
473.8034451
469.7228422
467.6639787
466.8107987
466.5138715
466.423624
466.396945
466.3869027
466.3808103
466.3757691
466.3711847
466.3669229
466.362934
466.3591891
466.3556691
466.3523638
466.3492744
466.3464245
466.3438893
466.3418787
466.3409675
466.3427571
466.3518369
466.3818541
466.4754595
466.7758775
467.824696
472.2466021
488.7237238
480.3255182
473.7905107
469.7176677
467.6694945
466.8234279
466.5294007
466.4396634
466.4126265
466.4020463
466.3954393
466.3899401
466.3849497
466.3803245
466.376008
466.371966
466.3681759
466.3646252
466.3613155
466.3582742
466.3555894
466.353504
466.3526756
466.3549086
466.3652886
466.3986757
466.5006638
466.8214794
467.918334
472.4400215
488.7272746
480.3188838
473.7799634
469.7142415
467.676089
466.8366762
466.5453058
466.4559626
466.4285054
466.4173444
466.4101878
466.4042008
466.3987782
466.3937667
466.3891023
466.3847453
466.3806691
466.3768593
466.3733176
466.3700763
466.3672382
466.3650842
466.364364
466.3671047
466.3789273
466.4159735
466.5268832
466.8689679
468.0148292
472.6357092
488.7322605
480.3146467
473.7716765
469.7124733
467.6837209
466.8505354
466.5615915
466.4725283
466.4445871
466.4328
466.4250569
466.4185505
466.4126681
466.4072463
466.4022128
466.3975221
466.3931434
466.3890602
466.3852747
466.3818251
466.3788312
466.3766166
466.376034
466.3793544
466.392774
466.4337866
466.5541791
466.9184209
468.1142516
472.8337079
488.7386363
480.3126616
473.7654863
469.7122491
467.692338
466.8649927
466.5782609
466.4893666
466.4608757
466.448415
466.4400464
466.4329872
466.4266162
466.4207588
466.4153341
466.4102902
466.4055922
466.4012211
466.3971803
466.3935145
466.3903634
466.3880988
466.3876877
466.3916675
466.4068518
466.4521572
466.5826168
466.9699202
468.2166752
473.0340617
488.7463285
480.312724
473.7611744
469.71342
467.7018709
466.8800284
466.5953143
466.506482
466.4773744
466.4641899
466.4551545
466.4475072
466.4406171
466.4342977
466.428459
466.4230421
466.4180075
466.4133341
466.4090265
466.4051376
466.4018294
466.3995283
466.3993278
466.4040556
466.4211864
466.4711314
466.6122661
467.0235527
468.3221781
473.2368162
488.7552201
480.3145401
473.7584394
469.7157846
467.712225
466.8956127
466.6127479
466.5238762
466.4940838
466.4801229
466.4703767
466.4621041
466.454663
466.4478544
466.441578
466.4357678
466.4303794
466.4253895
466.4208043
466.4166863
466.4132232
466.4109024
466.4109575
466.416532
466.4358064
466.4907595
466.643202
467.0794107
468.4308441
473.4420185
488.7651256
480.3176814
473.7568557
469.7190628
467.7232678
466.9117005
466.6305514
466.5415475
466.5110012
466.4962084
466.4857053
466.4767681
466.4687429
466.4614167
466.4546786
466.4484549
466.4426958
466.4373757
466.4325031
466.4281517
466.4245382
466.4222187
466.4225815
466.4291122
466.4507441
466.5110966
466.6755059
467.1375934
468.5427628
473.6497182
488.775755
480.3215125
473.7558099
469.7228572
467.7348105
466.9282238
466.6487048
466.5594879
466.5281186
466.5124359
466.501127
466.4914845
466.4828408
466.4749683
466.4677447
466.4610875
466.4549415
466.4492786
466.4441104
466.4395232
466.4357672
466.4334752
466.4342053
466.4418142
466.4660361
466.5322042
466.7092668
467.1982084
468.6580312
473.8599668
488.7866457
480.3250746
473.7544007
469.726593
467.7465802
466.94508
466.6671729
466.5776799
466.5454199
466.5287869
466.5166213
466.5062312
466.4969343
466.4884871
466.4807547
466.4736453
466.4670976
466.4610813
466.4556114
466.4507891
466.4469025
466.4446699
466.4458365
466.4546596
466.4817242
466.5541512
466.7445829
467.2613733
468.776756
474.0728193
488.7970826
480.3269133
473.7512855
469.7294256
467.7581772
466.9621152
466.6858974
466.5960917
466.5628767
466.5452314
466.532157
466.5209767
466.5109925
466.5019434
466.4936807
466.4861026
466.479141
466.4727632
466.4669886
466.4619358
466.4579355
466.4558017
466.4574845
466.4676739
466.4978569
466.5770155
466.7815639
467.3272186
468.899055
474.288334
488.8058307
480.3247104
473.7444013
469.7300865
467.7690075
466.9790964
466.7047845
466.6146685
466.5804413
466.5617226
466.5476873
466.5356759
466.5249727
466.5152976
466.5064868
466.4984271
466.4910431
466.4842997
466.4782219
466.472948
466.4688574
466.4668705
466.4691623
466.4808884
466.5144912
466.6008869
466.8203342
467.395891
469.0250603
474.5065743
488.8111151
480.3149296
473.7305968
469.7266628
467.7781843
466.995673
466.7236862
466.633321
466.5980383
466.578189
466.5631448
466.5502658
466.5388172
466.528498
466.519127
466.5105786
466.5027694
466.4956619
466.489288
466.4838091
466.4796596
466.4778785
466.4808868
466.4943415
466.5316947
466.6258697
466.8610365
467.4675577
469.1549231
474.7276093
488.8089179
480.2911304
473.7046248
469.7161272
467.7843471
467.0113094
466.7423693
466.6519049
466.6155488
466.5945232
466.5784318
466.5646591
466.5524493
466.5414774
466.5315435
466.5225079
466.5142786
466.5068161
466.5001608
466.4945011
466.4903339
466.4888305
466.4926809
466.508081
466.5495487
466.6520865
466.9038358
467.5424098
469.2888135
474.9515151
488.7950494
480.2441426
473.658522
469.6938933
467.7854683
467.0252101
466.7604801
466.6701998
466.6327966
466.6105735
466.593417
466.578743
466.565773
466.5541554
466.5436692
466.5341596
466.5255257
466.5177269
466.5108142
466.505008
466.5008764
466.4997378
466.5045769
466.5221683
466.5681532
466.6796846
466.9489286
467.6206763
469.4269431
475.1783796
488.7511517
480.1511791
473.5766197
469.652011
467.778296
467.0361407
466.7774631
466.6878577
466.6495119
466.626117
466.6079152
466.5923647
466.5786627
466.5664291
466.5554201
466.5454658
466.5364566
466.5283524
466.5212182
466.515312
466.5112836
466.5106158
466.5166152
466.5366773
466.5876259
466.7088337
466.9965349
467.7026018
469.5695131
475.4082967
488.6690852
479.9867124
473.4376511
469.5794416
467.7584198
467.0424572
466.792579
466.7044267
466.6653649
466.640901
466.6217318
466.6053747
466.5910045
466.5782123
466.5667322
466.5563797
466.5470387
466.5386723
466.5313642
466.5254175
466.5215756
466.5215049
466.5288643
466.5517153
466.6081256
466.7397565
467.0469479
467.7885419
469.7168974
475.6413926
488.4320493
479.6454907
473.1872926
469.454585
467.7184961
467.0415984
466.8046591
466.7191823
466.6798346
466.6545329
466.6345657
466.6175395
466.6026151
466.5893595
466.5774887
466.5668073
466.5571967
466.548628
466.5412095
466.5352986
466.5317461
466.5324237
466.5413749
466.5673736
466.6297914
466.7726393
467.1003786
467.8786609
469.8690843
475.8777626
488.0036694
479.0498631
472.7778532
469.2592836
467.6530336
467.031839
466.8129794
466.7317479
466.692727
466.6669326
466.6464094
466.628897
466.6135603
466.5999535
466.5877826
466.576848
466.5670342
466.5583266
466.5508662
466.5450755
466.5419293
466.5435287
466.5543389
466.5838981
466.6529495
466.8079265
467.1574488
467.9738593
470.0273266
476.1176484
486.6722935
477.8293988
472.0938067
468.9656222
467.5557833
467.0110866
466.8162924
466.7412292
466.7033793
466.6775903
466.6568513
466.6390999
466.6235369
466.6097226
466.597366
466.5862731
466.5763395
466.5675726
466.5601553
466.5545869
466.5519822
466.5546954
466.567644
466.6011691
466.6774239
466.8452767
467.2174302
468.0726275
470.1890518
476.3610791
487.3570534
478.7094207
472.838708
469.4300816
467.7868174
467.1121264
466.8615985
466.7663342
466.7214785
466.6928497
466.6705314
466.6516506
466.6351846
466.6206175
466.6076197
466.595972
466.585552
466.5763529
466.5685466
466.5626243
466.5596954
466.5621133
466.5748063
466.6081517
466.6844059
466.852717
467.2265845
468.087352
470.2250771
476.5565007
487.9652614
479.2740862
473.3311562
469.7717491
467.9760443
467.2033719
466.9057785
466.7917731
466.7399277
466.7083571
466.6844005
466.6643573
466.6469659
466.6316281
466.6179746
466.6057602
466.5948437
466.5852042
466.5770024
466.5707215
466.5674655
466.569588
466.5820279
466.6151994
466.6914603
466.8602328
467.2357997
468.1021048
470.2616199
476.7470369
488.431453
479.7311033
473.6981008
470.0292474
468.1270028
467.2817206
466.9466008
466.8165131
466.7582444
466.7238262
466.6982447
466.6770404
466.6587216
466.6426098
466.6282962
466.6155107
466.6040935
466.59401
466.5854105
466.5787702
466.5751893
466.5770229
466.5892233
466.6222453
466.6985543
466.8678565
467.2452359
468.1173043
470.2995527
476.9344293
488.7731269
480.1165117
473.9933385
470.2354296
468.2519722
467.3502012
466.9845485
466.8406446
466.776521
466.739363
466.7121656
466.6897922
466.6705353
466.6536384
466.6386543
466.625288
466.6133617
466.602827
466.5938239
466.5868206
466.5829137
466.584461
466.5964299
466.6293188
466.7057044
466.8755824
467.2548496
468.1328433
470.338603
477.1183712
489.0283037
480.461772
474.2510441
470.4109508
468.3594514
467.4112249
467.0200209
466.8641399
466.7946975
466.7549271
466.7261376
466.7025949
466.6823941
466.6647046
466.649042
466.6350869
466.6226441
466.6116516
466.6022396
466.5948694
466.590635
466.5918979
466.6036423
466.6364124
466.7129003
466.8833972
467.2646253
468.1487123
470.3787412
477.2990141
489.2240429
480.7753829
474.4855272
470.5671638
468.4551943
467.4668724
467.0535613
466.8870898
466.8127727
466.7705088
466.7401538
466.7154451
466.6942972
466.6758094
466.6594618
466.6449113
466.6319453
466.620489
466.610663
466.6029222
466.5983583
466.5993377
466.6108627
466.6435255
466.7201365
466.8912875
467.2745385
468.1648746
470.4198742
477.4763794
489.3797566
481.0634226
474.7051932
470.711155
468.5430997
467.5187105
467.0856386
466.9095891
466.8307471
466.7860923
466.7541992
466.7283307
466.706235
466.6869458
466.6699085
466.6547575
466.6412631
466.6293382
466.6190938
466.610979
466.6060839
466.6067803
466.61809
466.6506546
466.7274056
466.8992399
467.284568
468.1813023
470.4619295
477.6505169
489.5081867
481.3295912
474.914547
470.8472371
468.6257656
467.5678847
467.1166375
466.9317319
466.8486293
466.8016676
466.7682615
466.7412405
466.7181984
466.6981064
466.6803767
466.6646214
466.6505948
466.6381972
466.6275309
466.6190394
466.6138116
466.6142254
466.6253227
466.6577963
466.734701
466.907243
467.2946954
468.1979708
470.5048384
477.8214712
489.6176487
481.576779
475.1162485
470.9781672
468.704962
467.6152275
467.1468602
466.9536007
466.8664308
466.8172277
466.7823305
466.7541648
466.7301789
466.7092841
466.6908603
466.6744984
466.6599367
466.6470637
466.6359728
466.6271024
466.6215407
466.621672
466.6325594
466.664948
466.7420175
466.9152872
467.3049059
468.2148606
470.5485405
477.9892916
489.7135304
481.8073161
475.3118765
471.1057251
468.7819048
467.6613422
467.1765397
466.9752647
466.8841639
466.8327685
466.7963984
466.7670955
466.742169
466.7204723
466.7013542
466.6843843
466.6692856
466.655935
466.6444176
466.6351668
466.6292702
466.6291193
466.6397989
466.6721071
466.7493546
466.9233804
467.3152089
468.2319547
470.5929486
478.1540298
489.7993523
482.02316
475.5023966
471.2310745
468.8574389
467.7066673
467.2058538
466.9967808
466.9018405
466.8482883
466.8104597
466.7800265
466.7541629
466.7316659
466.7118536
466.6942752
466.6786385
466.664809
466.6528637
466.6432314
466.6369994
466.6365673
466.6470434
466.6792799
466.7567166
466.9315123
467.3255863
468.249253
470.6380025
478.3157403
489.8774497
482.2259742
475.6884083
471.3549754
468.9321543
467.751522
467.2349381
467.0181948
466.9194715
466.8637864
466.8245105
466.7929532
466.7661561
466.7428607
466.7223551
466.7041679
466.6879919
466.6736829
466.6613094
466.6512954
466.6447289
466.6440173
466.6542923
466.6864618
466.7640956
466.9396753
467.336028
468.2667448
470.6836759
478.4744795
489.9494065
482.4171838
475.8702911
471.4779142
469.0063501
467.7960389
467.2639503
467.0395895
466.9370876
466.8792716
466.8385521
466.8058743
466.7781463
466.7540543
466.7328562
466.7140608
466.6973462
466.6825574
466.6697552
466.6593594
466.6524585
466.6514684
466.6615443
466.6936503
466.7714878
466.9478639
467.3465272
468.284423
470.7299423
478.6303051
490.016328
482.5980136
476.0482903
471.6001778
469.0799569
467.8406524
467.2930185
467.0609986
466.9546968
466.8947443
466.8525827
466.8187875
466.7901316
466.7652449
466.7433555
466.7239526
466.7066996
466.691431
466.6781999
466.6674224
466.6601874
466.6589196
466.6687982
466.7008439
466.7788906
466.9560743
467.3570789
468.3022827
470.7767757
478.7832755
490.0790101
482.7695186
476.2225487
471.7214591
469.1537566
467.8854286
467.3221692
467.0824313
466.9723013
466.9102039
466.8666005
466.8316908
466.8021095
466.7764302
466.753851
466.7338413
466.7160505
466.7003023
466.6866426
466.6754835
466.6679149
466.6663703
466.6760531
466.7080412
466.786302
466.9643036
467.3676799
468.3203211
470.8241569
478.9334427
490.1380458
482.9326115
476.3931758
471.8420546
469.2278505
467.9304175
467.3514238
467.1038955
466.9899033
466.9256505
466.8806047
466.8445825
466.8140785
466.7876087
466.7643411
466.7437258
466.7253978
466.7091705
466.6950826
466.6835423
466.6756406
466.67382
466.6833084
466.7152413
466.7937206
466.97255
467.3783283
468.3385365
470.8720575
479.0808677
490.1938915
483.0880851
476.5602641
471.9621676
469.3022873
467.9756565
467.3807991
467.125398
467.0075053
466.9410844
466.8945945
466.8574618
466.8260374
466.798779
466.7748247
466.7536049
466.7347407
466.7180349
466.7035192
466.6915983
466.6833642
466.6812685
466.6905638
466.7224437
466.8011456
466.9808121
467.3890228
468.356928
470.9204506
479.2256104
490.2469093
483.2366305
476.7238977
472.0819121
469.3770976
468.0211729
467.4103089
467.1469446
467.0251094
466.9565062
466.9085699
466.8703281
466.8379855
466.8099405
466.785301
466.7634779
466.7440784
466.726895
466.7119523
466.6996513
466.6910854
466.6887154
466.6978189
466.7296479
466.8085763
466.9890891
467.3997629
468.3754954
470.9693104
479.3677288
490.2973946
483.3788527
476.884157
472.2013409
469.4522978
468.0669868
467.4399641
467.1685403
467.0427177
466.9719165
466.9225309
466.883181
466.8499221
466.8210925
466.7957694
466.7733444
466.7534106
466.7357503
466.7203813
466.7077011
466.6988041
466.6961608
466.7050736
466.7368536
466.8160122
466.9973804
467.4105483
468.3942385
471.0186123
479.5072799
490.3455934
483.5152831
477.0411218
472.3204657
469.5278935
468.1131125
467.4697735
467.1901896
467.0603322
466.9873162
466.9364775
466.8960205
466.8618471
466.8322346
466.8062295
466.7832038
466.7627369
466.7446007
466.7288062
466.7157474
466.7065202
466.7036043
466.7123277
466.7440605
466.8234529
467.0056858
467.4213792
468.4131574
471.0683329
479.6443188
490.3917146
483.6463909
477.1948724
472.4392707
469.603882
468.1595599
467.4997444
467.2118963
467.0779548
467.0027061
466.9504101
466.9088464
466.8737603
466.8433667
466.8166811
466.7930561
466.772057
466.7534459
466.7372268
466.7237902
466.7142334
466.711046
466.7195811
466.7512686
466.8308984
467.0140049
467.432256
468.4322524
471.1184494
479.7788997
490.4359379
483.7725916
477.34549
472.557723
469.6802541
468.2063353
467.5298828
467.2336638
467.095587
467.0180868
466.964329
466.9216589
466.8856616
466.8544885
466.827124
466.8029009
466.7813709
466.7622859
466.7456429
466.7318293