/*--------------------------------*- C++ -*----------------------------------*\
  =========                 |
  \\      /  F ield         | OpenFOAM: The Open Source CFD Toolbox
   \\    /   O peration     | Website:  https://openfoam.org
    \\  /    A nd           | Version:  8
     \\/     M anipulation  |
\*---------------------------------------------------------------------------*/
FoamFile
{
    version     2.0;
    format      ascii;
    class       volScalarField;
    location    "903";
    object      nu;
}
// * * * * * * * * * * * * * * * * * * * * * * * * * * * * * * * * * * * * * //

dimensions      [0 2 -1 0 0 0 0];

internalField   nonuniform List<scalar> 
6300
(
1.67999087
1.695859762
1.56375297
1.406827653
1.253277492
1.112721633
0.9885110222
0.8810409138
0.7890825891
0.7107079671
0.6438646303
0.586658277
0.5374546479
0.4948908125
0.4578487935
0.4254179566
0.396857703
0.3715647695
0.3490460874
0.3288969269
0.3107835342
0.2944294469
0.2796046006
0.2661159906
0.2537961761
0.2424716326
0.2318202101
0.220704321
0.204180609
0.1619734151
1.405014484
1.419532729
1.372844952
1.283655827
1.172077337
1.055508417
0.9456032447
0.8477004728
0.7628000599
0.6898846086
0.6273336178
0.5735233477
0.5270190367
0.4866113001
0.4513006972
0.4202678655
0.3928424092
0.3684751428
0.3467147385
0.3271887605
0.3095884375
0.2936565279
0.2791774615
0.2659685349
0.2538680799
0.2427015995
0.2321370801
0.2210255347
0.2043822908
0.1615367391
1.309996694
1.317453182
1.287597947
1.221680044
1.129650905
1.025921158
0.9236381378
0.8304758527
0.7489121007
0.6785686082
0.6180698247
0.5659105391
0.5207379448
0.4814079982
0.4469737889
0.4166575312
0.3898213884
0.3659415585
0.3445865194
0.3253993261
0.3080833759
0.2923910287
0.2781143385
0.2650766668
0.2531210022
0.2420763088
0.2316148581
0.2205879193
0.2039309256
0.1607528937
1.245903672
1.244568382
1.219632744
1.166334426
1.08803722
0.9951739912
0.9002282667
0.811935659
0.7338696594
0.6662477145
0.6079456007
0.5575752592
0.5138613197
0.4757223495
0.4422634379
0.4127491928
0.3865757622
0.3632463373
0.3423507796
0.3235490726
0.3065580656
0.2911408216
0.2770979062
0.2642593658
0.2524732009
0.2415718299
0.231228366
0.2202773476
0.2035573893
0.1600622798
1.193658935
1.186496995
1.163479209
1.118041248
1.049813844
0.9659880338
0.8777181265
0.7940489525
0.719320692
0.6542851988
0.598073564
0.5494158166
0.5071084209
0.47012595
0.4376201138
0.4088940132
0.3833750588
0.3605915617
0.3401534496
0.3217367159
0.3050709641
0.2899293974
0.2761205975
0.2634808273
0.2518626924
0.2411014739
0.230868767
0.2199775226
0.203176538
0.1593900265
1.147070511
1.136496108
1.114740128
1.074833128
1.014381408
0.9381990344
0.8560157764
0.7767514726
0.7052372008
0.6426810581
0.5884671706
0.541448541
0.5004928298
0.4646271865
0.4330462767
0.4050886147
0.3802104996
0.3579635779
0.3379765196
0.3199403419
0.3035966549
0.2887282499
0.2751513157
0.2627080772
0.2512556539
0.240632019
0.2305062408
0.2196681089
0.2027805083
0.158731314
1.103569991
1.091377637
1.07095024
1.035402324
0.9812542605
0.9116450432
0.8350171944
0.7599462164
0.6915420172
0.6313835797
0.5790950675
0.5336554012
0.4940043923
0.4592201965
0.4285381247
0.4013299144
0.3770789495
0.3553587884
0.3358157596
0.3181550807
0.3021297642
0.2875317504
0.2741845446
0.2619361823
0.2506482255
0.2401611601
0.2301408792
0.2193528814
0.2023751185
0.1580857223
1.06212821
1.049633915
1.030793864
0.9989751272
0.9501351879
0.8862550042
0.8146954727
0.7435977165
0.6781976696
0.6203631207
0.5699371023
0.5260236004
0.487635145
0.4538999461
0.4240922497
0.3976153123
0.3739781245
0.3527749626
0.3336688949
0.3163786237
0.300668042
0.2863378544
0.273218631
0.2611640586
0.2500400351
0.2396893408
0.22977412
0.2190342713
0.2019627593
0.157452175
1.022312825
1.010450721
0.993467533
0.9650177634
0.9207881231
0.8619664848
0.7950368188
0.7276889543
0.6651813259
0.6095984041
0.5609768329
0.5185413454
0.4813767944
0.4486605376
0.4197043311
0.3939414971
0.3709053539
0.3502098623
0.3315339978
0.314609322
0.2992101262
0.2851455338
0.2722529323
0.260391502
0.2494313397
0.2392173034
0.2294071839
0.2187137014
0.2015444591
0.156829648
0.9839277385
0.9733450146
0.9584394611
0.9331345547
0.8930085835
0.8387091965
0.7760216999
0.7122054902
0.6524750151
0.5990717084
0.5521996431
0.5111975544
0.4752212157
0.4434960497
0.4153700436
0.3903052837
0.3678582793
0.3476617421
0.3294098082
0.3128463182
0.2977555276
0.2839546496
0.2712876606
0.2596190674
0.2488230235
0.2387462217
0.229041402
0.2183923117
0.201120916
0.1562175092
0.9468797618
0.9380141967
0.9253444044
0.9030270696
0.8666220008
0.8164106271
0.7576256685
0.6971334527
0.6400642109
0.5887687028
0.5435933898
0.5039828218
0.4691614216
0.4384014019
0.4110857379
0.3867040866
0.3648351072
0.3451294049
0.3272956003
0.3110892784
0.2963042449
0.2827655066
0.2703234
0.2588475956
0.2482161482
0.238277297
0.2286779339
0.2180709042
0.2006925992
0.1556153782
0.9111208228
0.9042580474
0.8939224799
0.8744665409
0.8414808077
0.7950003321
0.7398210628
0.6824586174
0.6279364233
0.5786774983
0.5351479231
0.4968891974
0.4631914772
0.4333722975
0.4068483682
0.3831358082
0.3618344548
0.3426120185
0.3251909686
0.3093381449
0.2948565167
0.281578596
0.2693608679
0.2580779977
0.2476117655
0.2378116273
0.2283177247
0.217750031
0.2002598686
0.1550230666
0.8766214202
0.8719361859
0.8639822495
0.8472745885
0.8174608443
0.7744124173
0.7225788267
0.6681663394
0.616080396
0.5687879572
0.5268546229
0.4899098966
0.4573063044
0.4284050628
0.4026553636
0.3795987123
0.3588552282
0.3401089807
0.3230956996
0.3075930105
0.2934126952
0.2803944909
0.2684008214
0.2573111749
0.2470108657
0.2373501845
0.2279615433
0.2174300862
0.1998230559
0.1544405269
0.8433584949
0.8409441863
0.8353778495
0.8213096559
0.7944575723
0.7545866755
0.7058699116
0.6542417568
0.6044856984
0.5590912199
0.5187060631
0.4830390596
0.4515015075
0.4234965191
0.3985045128
0.3760913353
0.3558965355
0.3376198423
0.3210096907
0.3058540545
0.2919731864
0.2792137843
0.267444009
0.2565479895
0.246414361
0.2368938252
0.2276100223
0.2171113742
0.1993825003
0.1538678215
0.8113099854
0.8111998245
0.8079943887
0.7964572773
0.7723825636
0.7354687836
0.6896661133
0.6406700645
0.5931425039
0.5495793781
0.5106957438
0.4762715735
0.4457732466
0.4186438945
0.3943938921
0.3726124181
0.3529576287
0.3351442556
0.3189329089
0.3041214968
0.2905384171
0.2780370711
0.2664911529
0.2557892509
0.2458230869
0.2364433073
0.2272636985
0.2167941491
0.1989385694
0.1533051173
0.78045249
0.7826349477
0.7817385177
0.7726231343
0.7511604326
0.7170099973
0.6739405679
0.6274367091
0.5820414793
0.5402452506
0.5028178851
0.4696029191
0.4401181287
0.4138447398
0.3903218094
0.3691608614
0.3500378752
0.3326819496
0.3168653701
0.3023955818
0.2891088138
0.2768649282
0.2655429436
0.2550357196
0.2452378124
0.2359993148
0.2269230442
0.2164786509
0.1984916754
0.1527526476
0.7507604013
0.7551906052
0.756532221
0.749728085
0.7307263611
0.6991666408
0.6586679756
0.6145275504
0.5711736794
0.5310822174
0.4950672793
0.4630290586
0.4345331305
0.4090968757
0.3862867609
0.3657356994
0.347136727
0.330232708
0.3148071206
0.3006765666
0.2876848033
0.2756979129
0.2646000377
0.2542881112
0.2446592539
0.2355624768
0.2265884926
0.2161651208
0.1980422724
0.1522107249
0.7222057907
0.7288140904
0.7323086521
0.7277045782
0.7110240554
0.681899521
0.6438246717
0.6019289544
0.560530532
0.5220841079
0.4874391779
0.456546348
0.4290155346
0.4043983485
0.3822874077
0.3623360776
0.3442537112
0.3277963599
0.3127582287
0.298964712
0.2862668031
0.2745365666
0.2636630644
0.2535471052
0.2440880886
0.2351333852
0.2262604558
0.2158538182
0.1975908688
0.151679719
0.6947585939
0.703457116
0.7090093242
0.7064940796
0.69200418
0.6651733716
0.6293885989
0.5896278498
0.5501038169
0.5132451221
0.4799292
0.4501514649
0.4235628776
0.3997473927
0.3783225435
0.3589612322
0.3413884161
0.3253727716
0.3107187857
0.2972602867
0.2848552236
0.2733814115
0.2627326311
0.2528133554
0.2435249654
0.2347126102
0.2259393405
0.2155450332
0.1971380242
0.1511600537
0.668386942
0.6790746851
0.6865821954
0.6860451652
0.6736231122
0.6489563472
0.6153392432
0.5776117545
0.5398856303
0.5045597714
0.4725332747
0.4438413499
0.4181729079
0.3951424056
0.3743910804
0.3556104817
0.3385404852
0.322961842
0.3086888952
0.2955635636
0.2834504721
0.2722329604
0.2618093288
0.2520874983
0.2429705191
0.2343007122
0.2256255598
0.2152390889
0.1966843559
0.1506522138
0.6430575445
0.6556243767
0.6649803007
0.6663121205
0.6558419514
0.6332195687
0.6016575339
0.5658687958
0.5298683954
0.4960228271
0.4652475899
0.4376131702
0.4128435538
0.3905819188
0.3704920291
0.3522832189
0.3357096084
0.3205635004
0.3066686784
0.293874818
0.282052953
0.2710917204
0.2608937406
0.2513701629
0.2424253798
0.2338982538
0.2253195437
0.2149363547
0.1962305336
0.1501567331
0.618736067
0.6330658882
0.644160795
0.6472539222
0.6386257582
0.6179367497
0.588325718
0.5543876911
0.520044847
0.4876293127
0.4580685405
0.4314642838
0.4075728973
0.3860645833
0.3666244895
0.348978893
0.3328955172
0.3181777036
0.3046582754
0.2921943371
0.280663073
0.2699581976
0.2599864486
0.2506619793
0.2418901799
0.2335058094
0.2250217464
0.2146372454
0.1957772869
0.1496742045
0.5953874755
0.6113607618
0.6240842524
0.6288334201
0.6219429304
0.6030838661
0.5753272816
0.5431577237
0.5104080184
0.4793744667
0.4509927143
0.4253922075
0.4023591513
0.3815891525
0.3627876379
0.3456970147
0.3300979824
0.3158044374
0.3026578401
0.2905224198
0.2792812496
0.2688329056
0.2590880421
0.2499635863
0.2413655658
0.2331239691
0.2247326537
0.21434223
0.1953254073
0.1492052724
0.5729763719
0.5904721821
0.6047141435
0.6110167456
0.6057647199
0.5886388703
0.5626468245
0.5321687412
0.500951227
0.4712537291
0.4440168695
0.4193946012
0.397200643
0.3771544718
0.3589807199
0.3424371451
0.3273168193
0.313443714
0.3006675502
0.2888593801
0.2779079096
0.267716369
0.2581991241
0.2492756383
0.2408522049
0.232753352
0.224452788
0.2140518365
0.1948757508
0.1487506328
0.5514672584
0.5703648529
0.5860164547
0.5937728231
0.5900648361
0.5745814667
0.5502699615
0.5214111157
0.491668076
0.4632627232
0.4371379098
0.4134692487
0.3920958047
0.3727594654
0.3552030474
0.3391988959
0.3245518786
0.3110955771
0.2986876103
0.2872055513
0.2765435034
0.2666091326
0.2573203183
0.2485988155
0.2403507898
0.2323946095
0.2241827171
0.2137666538
0.1944292363
0.1483110482
0.5308247855
0.5510049195
0.5679593752
0.5770730104
0.574819128
0.5608928896
0.5381832506
0.5108757076
0.4825524382
0.4553972489
0.4303528791
0.4076140417
0.3870431644
0.3684031362
0.351453991
0.3359819288
0.3218030524
0.3087601041
0.2967182523
0.2855612979
0.2751885051
0.2655117698
0.2564522797
0.2479338271
0.2398620508
0.2320484303
0.2239230578
0.2134873369
0.1939868555
0.1478873386
0.5110139728
0.5323598845
0.5505130618
0.5608907753
0.5600053111
0.547555755
0.5263740929
0.5005538456
0.4735984469
0.4476532685
0.4236589483
0.4018269844
0.3820413319
0.3640845618
0.3477329857
0.3327859615
0.3190702772
0.3064374174
0.2947597439
0.2839270159
0.2738434224
0.2644248864
0.2555956964
0.2472814224
0.2393867569
0.231715551
0.2236744835
0.2132146162
0.1935496745
0.1474803832
0.4920003583
0.5143985692
0.5336494432
0.545201464
0.5456027466
0.534553901
0.5148306583
0.490437307
0.464800476
0.4400269094
0.4170534038
0.3961061774
0.377089003
0.3598028884
0.3440395285
0.3296107635
0.3163535424
0.3041276795
0.2928124006
0.2823031437
0.2725088069
0.2633491306
0.2547513022
0.2466423974
0.2389257255
0.2313967602
0.223437729
0.2129492968
0.1931188335
0.147091139
0.4737501592
0.4970910751
0.5173420583
0.5299820865
0.5315922627
0.5218722552
0.5035418304
0.4805182719
0.4561531397
0.4325144532
0.4105336526
0.3904498168
0.3721849561
0.35555734
0.3403731818
0.3264561662
0.313652894
0.3018311092
0.2908765845
0.2806901758
0.27118526
0.2622852062
0.2539198844
0.2460176002
0.2384798299
0.2310929043
0.2232135954
0.2126922665
0.1926955575
0.1467206251
0.4562303882
0.4804087208
0.5015659199
0.515211147
0.5179559873
0.5094967342
0.4924971337
0.4707893023
0.4476512788
0.425112324
0.4040972132
0.3848561971
0.3673280576
0.3513472175
0.3367335843
0.323322072
0.3109684468
0.2995479949
0.2889527248
0.2790886629
0.2698734453
0.261233874
0.2531022894
0.2454079423
0.2380500062
0.2308048953
0.2230029602
0.2124445023
0.1922811591
0.1463699443
0.4394089246
0.4643240193
0.4862973917
0.5008684899
0.5046772195
0.4974141357
0.4816866827
0.4612433275
0.4392899557
0.4178170972
0.3977417139
0.3793237107
0.3625172639
0.3471719077
0.3331204596
0.3202084637
0.3083003915
0.2972786986
0.2870413284
0.2774992321
0.2685740994
0.260195969
0.2522994383
0.2448144057
0.2376372595
0.2305337178
0.2228067804
0.2122070743
0.1918770406
0.1460402811
0.4232545993
0.4488106362
0.471514094
0.4869351779
0.4917403038
0.4856120581
0.4711011373
0.4518736033
0.4310644398
0.410625494
0.3914649085
0.3738508531
0.3577516306
0.3430308929
0.3295336247
0.3171154222
0.3056490144
0.2950236747
0.2851429909
0.275922601
0.2672880474
0.2591724114
0.2515123315
0.2442380509
0.237242674
0.2302804363
0.2226261015
0.2119811542
0.1914847033
0.1457329003
0.4077372415
0.4338433391
0.4571947934
0.473393374
0.4791305345
0.4740788186
0.4607316477
0.4426737094
0.4229702009
0.4035343764
0.3852646701
0.3684362368
0.3530303274
0.3389237716
0.3259730098
0.3140431382
0.3030147182
0.2927834898
0.2832584165
0.2743595915
0.2660162134
0.258164217
0.2507420643
0.2436800284
0.2368674217
0.2300462023
0.2224620625
0.2117680174
0.1911057511
0.1454491707
0.3928276949
0.419397961
0.4433193234
0.4602262399
0.4668340536
0.4628033883
0.4505698162
0.4336375191
0.4150029168
0.3965407646
0.3791390013
0.3630785987
0.3483526501
0.3348502725
0.3224386797
0.3109919403
0.3003980367
0.290558846
0.2813884395
0.2728111497
0.264759641
0.2571725154
0.2499898389
0.2431415897
0.2365127688
0.2298322619
0.2223159034
0.2115690531
0.1907418978
0.1451905503
0.3784978359
0.4054513544
0.4298685147
0.4474178483
0.4548377745
0.4517753357
0.4406076632
0.4247591843
0.4071584513
0.3896418352
0.3730860527
0.3577768237
0.3437180459
0.3308102799
0.318930858
0.3079623202
0.297799666
0.2883506015
0.279534048
0.2712783696
0.263519514
0.2561985664
0.2492569771
0.2426240987
0.236180087
0.2296399646
0.2221889744
0.2113857702
0.1903949714
0.1449586115
0.3647205802
0.3919813369
0.4168241029
0.434953092
0.4431293042
0.4409847575
0.4308375923
0.416033129
0.399432875
0.3828349314
0.3671041381
0.3525299675
0.3391261431
0.3268038672
0.3154499658
0.3049549642
0.2952205011
0.2861598065
0.2776964136
0.2697625176
0.2622971753
0.2552437774
0.2485449362
0.2421290428
0.2358708641
0.2294707709
0.2220827383
0.211219799
0.1900669183
0.1447550362
0.3514698549
0.3789666449
0.4041686637
0.4228176128
0.4316968741
0.4304222347
0.4212523598
0.4074540348
0.3918224643
0.3761175891
0.3611917631
0.3473372888
0.3345767871
0.322831338
0.3119966594
0.3019708013
0.2926616715
0.2839877408
0.2758769242
0.2682650617
0.261094154
0.2543097258
0.2478553267
0.2416580453
0.2355867098
0.2293262591
0.2219987797
0.2110729013
0.1897598128
0.1445816223
0.338720583
0.3663868782
0.3918855441
0.4109977279
0.4205292766
0.4200787882
0.4118450483
0.3990168305
0.3843237112
0.3694875546
0.355347665
0.3421982946
0.3300700909
0.3188932766
0.3085718858
0.2990110499
0.290124591
0.2818359564
0.2740772265
0.2667877097
0.2599121961
0.2533981818
0.247189929
0.2412128814
0.2353293696
0.2292081306
0.2219388079
0.2109469717
0.1894758573
0.1444403013
0.3264486368
0.3542224389
0.3799587878
0.3994803531
0.4096157991
0.409945838
0.4026090586
0.39071671
0.3769333525
0.3629428268
0.349570857
0.3371127972
0.3256064982
0.3149906146
0.305176951
0.2960772795
0.2876110209
0.2797063349
0.2722992696
0.2653324455
0.258753296
0.2525111329
0.2465507132
0.240795489
0.2351007298
0.2291182167
0.2219046606
0.2108440387
0.1892173886
0.1443331346
0.3146307907
0.3424544724
0.3683730703
0.3882529449
0.3989461778
0.4000151552
0.3935380848
0.3825491387
0.369648398
0.3564817135
0.3438606952
0.3320809926
0.321186866
0.3111247179
0.3018135949
0.293171499
0.2851231385
0.2776011482
0.2705453641
0.2639015759
0.2576197315
0.2516508123
0.2459398586
0.2404079781
0.2349028242
0.2290584811
0.2218983041
0.2107662677
0.1889868786
0.1442623176
0.3032446646
0.3310647894
0.3571136181
0.3773034224
0.3885105383
0.3902788496
0.3846261105
0.3745098779
0.3624661926
0.3501029013
0.3382169716
0.3271035664
0.3168125731
0.3072974948
0.2984841016
0.2902962436
0.2826636267
0.2755231349
0.2688182433
0.2624977842
0.256514105
0.2508197275
0.2453597704
0.2400526463
0.2347378386
0.2290310165
0.2219218303
0.2107159554
0.188786934
0.1442302016
0.2922686269
0.3200357906
0.3461661428
0.3666201108
0.3782993517
0.3807293391
0.3758674473
0.3665950339
0.3553844934
0.3438055691
0.3326400419
0.3221818236
0.3124856581
0.3035115286
0.2951914314
0.2874547005
0.280235773
0.2734755939
0.2671211406
0.2611241831
0.2554393881
0.2500206921
0.2448130989
0.239731983
0.2346081098
0.2290380378
0.2219774474
0.210695524
0.1886202942
0.1442392757
0.2816817186
0.3093503798
0.3355167504
0.3561916684
0.3683033915
0.3713593434
0.3672567484
0.3588011517
0.3484015871
0.3375895368
0.3271310002
0.3173178723
0.3082090072
0.2997702572
0.2919393789
0.2846508524
0.2778436031
0.271462484
0.2654578671
0.2597843892
0.2543989661
0.2492568526
0.2443027547
0.2394486751
0.2345161173
0.2290818735
0.2220674605
0.2107075036
0.1884898217
0.1442921916
0.2714635341
0.2989918515
0.3251518516
0.3460070219
0.3585137044
0.3621619145
0.3587890907
0.3511253352
0.3415164762
0.3314554779
0.321691909
0.3125148706
0.3039865938
0.2960782026
0.2887327808
0.2818896542
0.2754920286
0.2694885534
0.263832912
0.258482586
0.2533966887
0.24853172
0.2438319195
0.2392055969
0.2344644662
0.2291649353
0.2221942507
0.2107545137
0.1883984959
0.1443917495
0.2615940732
0.288943768
0.3150580634
0.3360553043
0.3489216021
0.353130484
0.3504601176
0.3435654559
0.3347291461
0.3254052298
0.3163261337
0.3077773582
0.2998237891
0.2924412542
0.2855777724
0.2791772518
0.2731870288
0.2675594745
0.2622515608
0.2572236046
0.2524369209
0.2478491954
0.2434040537
0.2390058023
0.2344558629
0.2292896813
0.2223602303
0.2108392247
0.188349383
0.144540904
0.2520535441
0.2791897983
0.3052220879
0.3263257973
0.3395186849
0.3442589989
0.342266253
0.3361204811
0.3280409599
0.3194422374
0.3110388004
0.3031117035
0.2957277836
0.2888670468
0.2824821076
0.2765212516
0.2709358675
0.2656820164
0.2607200041
0.2560130176
0.2515245967
0.2472135967
0.2430228929
0.238852503
0.2344930715
0.2294585672
0.2225677863
0.2109643075
0.1883456146
0.1447427671
0.2428221723
0.2697135303
0.2956305944
0.3168079036
0.3302969431
0.335542148
0.3342050982
0.3287909772
0.3214552447
0.3135721844
0.3058374235
0.2985267033
0.2917081317
0.2853654372
0.2794555574
0.2739310475
0.2687473411
0.2638642463
0.25924549
0.2548572246
0.2506652838
0.2466296841
0.2426924481
0.2387490297
0.2345788556
0.2296739639
0.2228191939
0.2111323608
0.1883903387
0.1450005884
0.2338796853
0.2604981595
0.2862700533
0.3074911659
0.3212489787
0.3269758178
0.3262760813
0.3215799144
0.3149782031
0.307803932
0.3007328189
0.2940344175
0.2877774872
0.2819491181
0.2765104221
0.2714182274
0.266632104
0.2621157641
0.2578365088
0.2537635944
0.249865259
0.2461027023
0.2424170043
0.2386988052
0.2347159139
0.2299380647
0.2231165086
0.211345807
0.1884866525
0.1453177621
0.2252054004
0.2515263219
0.277126642
0.298365395
0.3123684312
0.3185578288
0.3184814522
0.3144938709
0.3086202028
0.3021508019
0.2957403097
0.2896512478
0.2839525221
0.2786343842
0.2736621351
0.2689970427
0.2646030348
0.2604479784
0.2565029815
0.2527406051
0.2491316114
0.2456384331
0.2422011296
0.2387053025
0.2349067876
0.2302527529
0.2234614088
0.2116067383
0.1886374986
0.1456977807
0.2167758032
0.2427790648
0.2681860119
0.2894210849
0.3036509838
0.3102894531
0.310828202
0.3075451605
0.3023979595
0.2966326652
0.2908816232
0.2853995827
0.2802553092
0.275442266
0.2709301888
0.2666851517
0.2626758268
0.2588745932
0.255256671
0.2517981609
0.2484724944
0.245243387
0.2420498036
0.2387721004
0.2351538447
0.2306195092
0.2238550326
0.2119167344
0.188845532
0.1461442388
0.2085685426
0.2342369148
0.2594337202
0.2806501272
0.2950956955
0.3021773654
0.3033304625
0.3007544337
0.2963370868
0.2912782737
0.2861868729
0.2813094022
0.2767145641
0.2723994462
0.2683388049
0.2645041152
0.2608693601
0.257411891
0.2541114019
0.2509477785
0.2478972616
0.2449248851
0.241968436
0.2389028295
0.2354591356
0.2310391654
0.2242976476
0.2122764853
0.1891127854
0.1466605938
0.200545801
0.2258740768
0.2508546294
0.2720482967
0.2867095144
0.29423941
0.2960158734
0.2941571219
0.2904782127
0.2861307809
0.2816993818
0.2774223993
0.2733691392
0.2695412489
0.265919499
0.2624816428
0.2592077034
0.2560805424
0.2530846994
0.2502040712
0.247417807
0.2446922482
0.2419638833
0.2391019954
0.2358249973
0.2315122651
0.2247887592
0.2126857048
0.1894405915
0.1472504638
0.1926938728
0.2176716751
0.2424371074
0.2636172542
0.2785095062
0.2865075313
0.2889288004
0.2878063172
0.2848790633
0.2812488081
0.2774757576
0.2737912214
0.2702666638
0.2669099142
0.2637091965
0.2606496871
0.2577182738
0.2549038778
0.2521961969
0.2495832832
0.2470472099
0.2445555243
0.2420432418
0.2393737994
0.2362528541
0.2320377969
0.2253257241
0.2131416156
0.1898279154
0.1479155352
0.1848991256
0.2095772962
0.234170559
0.2553804591
0.2705473278
0.2790553026
0.2821579673
0.2817989803
0.2796385268
0.2767281827
0.2736054318
0.270497116
0.2674796328
0.2645694162
0.2617640115
0.2590573229
0.2564439034
0.2539191675
0.2514781426
0.249113029
0.2468086891
0.2445336587
0.2422212
0.2397286325
0.2367487974
0.2326177586
0.2259072023
0.2136413364
0.1902735327
0.148659844
0.1772651564
0.2016131146
0.2260695813
0.2473763147
0.2628927908
0.2719788894
0.2758153528
0.2762518167
0.2748691027
0.2726713862
0.270178046
0.2676163357
0.265071765
0.2625724797
0.2601273769
0.2577402489
0.2554138529
0.2531502389
0.250949655
0.2488082055
0.2467132195
0.244633831
0.2425011489
0.2401660082
0.2373083761
0.2332438137
0.2265215301
0.2141713656
0.1907643094
0.1494715902
0.1692219822
0.193600318
0.2181795843
0.239784661
0.255800624
0.2655669717
0.2701966368
0.2714500392
0.2708350852
0.2693170068
0.2674058142
0.2653365496
0.2632091303
0.2610666855
0.258931152
0.2568168492
0.2547347449
0.2526932033
0.2506972214
0.2487462558
0.2468295234
0.2449161276
0.2429343741
0.2407280277
0.2379639308
0.2339379557
0.2271802557
0.2147346924
0.1913023996
0.150367624
0.1618006579
0.1859001463
0.2106396976
0.2327202759
0.2494205497
0.2599939418
0.2654694912
0.2675291681
0.267627766
0.2667110377
0.2652947531
0.263631593
0.2618411832
0.2599837608
0.2580945636
0.2561977862
0.2543116211
0.2524497046
0.2506208074
0.2488268565
0.2470581235
0.2452829194
0.2434260212
0.2413235638
0.2386291183
0.2346197258
0.2278093943
0.2152619288
0.1918128846
0.1512461561
0.1516519169
0.1778094813
0.2040995309
0.2273962126
0.2450884006
0.2565192249
0.2627527785
0.2654625612
0.2660927417
0.2655955232
0.2645061759
0.2631002582
0.2615174215
0.2598330387
0.2580929699
0.256328667
0.2545632524
0.2528137086
0.25109093
0.2493978232
0.2477242801
0.2460363326
0.244253589
0.2422028021
0.2395227189
0.2354713148
0.2285501
0.21585599
0.1923912105
0.1522710375
0.1459729107
0.1715483291
0.1986039681
0.2231905635
0.2420433665
0.2543030014
0.2610858755
0.264154947
0.2650199308
0.2646789492
0.2637001494
0.2623811282
0.2608748838
0.2592641157
0.2575983477
0.2559107543
0.2542251524
0.2525586844
0.2509219912
0.2493172266
0.2477328023
0.2461320332
0.2444298542
0.2424454582
0.2398064336
0.235757278
0.2287917537
0.2160295358
0.1925797459
0.1528074073
0.1274822426
0.1672254854
0.2015347008
0.2283498832
0.2471464237
0.2585977788
0.2645151839
0.266904802
0.2673013688
0.2666564162
0.2654871654
0.2640537106
0.2624843385
0.2608457962
0.2591771161
0.2575042815
0.2558458552
0.2542147518
0.2526177258
0.2510527281
0.2495028756
0.2479240171
0.2462200299
0.2441937426
0.2414500966
0.2372081183
0.2299529978
0.2168739612
0.1933331855
0.1540820203
0.1234147584
0.1634787063
0.1986800378
0.2260309942
0.2451819813
0.2569898361
0.2632241593
0.2658527399
0.2664292575
0.2659358809
0.2649077163
0.2636107723
0.262173662
0.2606620719
0.2591142456
0.257555853
0.2560054814
0.2544761395
0.2529745743
0.251498454
0.2500301238
0.2485239279
0.246881127
0.2449004266
0.2421807812
0.2379332524
0.2306344871
0.2174728946
0.1938435633
0.1546409849
0.1335213851
0.1603805886
0.188711598
0.2145081038
0.234655903
0.2482295968
0.2561576141
0.2601230095
0.261679472
0.2619038546
0.2614226205
0.2605630363
0.2594892195
0.258286879
0.2570063723
0.2556816727
0.2543377887
0.252993088
0.2516590204
0.2503375627
0.2490152015
0.2476505106
0.2461493054
0.2443152321
0.2417518546
0.2376711134
0.2305357396
0.217479959
0.1937922964
0.154421428
0.1341747291
0.160031677
0.1866704144
0.2110575153
0.2305932928
0.244228268
0.2525397101
0.2569524702
0.2589143879
0.2594874486
0.2593124942
0.2587314364
0.25791675
0.2569577837
0.2559063365
0.2547971592
0.2536560046
0.2525021039
0.2513478482
0.2501961299
0.2490341705
0.2478208432
0.2464613267
0.2447566541
0.242303698
0.2382996816
0.2311784021
0.2180295908
0.1941297386
0.1546533715
0.1365034349
0.1602491528
0.18513117
0.2082279056
0.22712104
0.240674475
0.2492129042
0.2539471211
0.2562196055
0.25706591
0.2571329117
0.2567736571
0.2561679298
0.2554083206
0.2545476201
0.2536207586
0.2526535706
0.2516655148
0.2506693877
0.249668602
0.2486509019
0.2475754873
0.2463472519
0.2447654562
0.242421823
0.2385012569
0.2314116772
0.2181988653
0.1941091058
0.1544978604
0.1374640663
0.1603666189
0.1843872122
0.2067262727
0.2251211475
0.2384841847
0.2470522575
0.2519168525
0.2543440961
0.2553413278
0.2555524669
0.255334308
0.2548694277
0.2542510769
0.2535314281
0.252744395
0.2519148608
0.2510615464
0.250196712
0.2493233417
0.2484287
0.2474711832
0.2463540424
0.2448730604
0.24261274
0.2387436307
0.2316472898
0.2183309155
0.1940329308
0.1543309375
0.1382580191
0.1604643506
0.1838660202
0.2056938055
0.2237357022
0.2369364047
0.2454909706
0.2504190646
0.2529353852
0.254026127
0.2543317293
0.254210699
0.2538468617
0.2533332492
0.2527209411
0.252042539
0.2513217371
0.2505762841
0.2498176483
0.2490480952
0.2482540721
0.2473927768
0.2463653709
0.244963705
0.2427647517
0.2389248939
0.2318008385
0.2183658615
0.1938603417
0.1540897845
0.1387638402
0.1604676363
0.1834379504
0.2049430139
0.2227662143
0.2358593646
0.2443957834
0.2493544854
0.2519196193
0.2530651317
0.2534301587
0.2533746778
0.2530830732
0.2526475909
0.2521178219
0.2515247697
0.2508907053
0.2502321858
0.2495596599
0.2488744209
0.2481618089
0.2473774856
0.2464201498
0.2450773699
0.2429184283
0.2390859683
0.2319137677
0.2183466759
0.1936389778
0.1538333153
0.1391376024
0.1604158086
0.1830408028
0.2043269839
0.2220243211
0.2350645252
0.243599315
0.2485811422
0.2511766545
0.2523550408
0.2527573514
0.252746109
0.2525064967
0.2521299409
0.2516644321
0.2511392413
0.2505750769
0.2499871615
0.2493847738
0.2487680761
0.2481211319
0.2473978996
0.2464944801
0.2451941307
0.2430586442
0.2392176673
0.231984407
0.2182798444
0.1933801729
0.1535673619
0.1394093656
0.1603195942
0.1826516621
0.2037817217
0.2214178913
0.2344516798
0.2430073197
0.2480162999
0.250635427
0.2518346028
0.2522598555
0.2522777899
0.2520751199
0.2517427781
0.2513272696
0.2508561376
0.2503484714
0.2498180732
0.2492729499
0.2487120246
0.2481179787
0.2474429838
0.2465805077
0.245309532
0.2431848175
0.2393240244
0.2320214057
0.2181778252
0.193098045
0.1533035956
0.1396160955
0.1601954578
0.182264651
0.2032732661
0.2208899029
0.2339529046
0.2425514396
0.2475967787
0.2502396359
0.2514540906
0.2518935603
0.2519302584
0.2517533553
0.2514538242
0.2510769692
0.2506487341
0.250186626
0.2497030103
0.2492045804
0.2486889705
0.2481374391
0.2475003449
0.2466685704
0.2454170975
0.2432940167
0.2394058102
0.2320292723
0.2180479309
0.1928000593
0.1530452557
0.1397761681
0.1600531826
0.1818791231
0.2027851425
0.2204081934
0.2335264794
0.2421870946
0.2472795537
0.2499498435
0.2511781529
0.2516269756
0.251675425
0.2515160473
0.2512404672
0.2508931643
0.2504986972
0.2500731006
0.2496273493
0.249166835
0.2486879001
0.2481703798
0.2475628804
0.2467538142
0.2455143595
0.2433863458
0.2394657482
0.2320130229
0.2178964559
0.1924917721
0.1527943958
0.1399031726
0.1599002587
0.1814966555
0.2023094732
0.2199540087
0.2331457747
0.2418840609
0.247034119
0.2497371577
0.2509803299
0.2514362592
0.2514919478
0.2513441269
0.2510856698
0.2507606395
0.2503924694
0.2499958804
0.2495805497
0.2491506207
0.2487011873
0.248210716
0.2476261269
0.2468334958
0.2456004141
0.2434627924
0.2395066134
0.2319768021
0.2177280148
0.1921767292
0.1525514544
0.1400058735
0.1597416668
0.1811190802
0.2018427479
0.2195165864
0.2327939784
0.2416220973
0.2468391507
0.2495807355
0.2508411175
0.2513036227
0.2513638447
0.2512233602
0.2509768275
0.2506682893
0.2503203302
0.2499465371
0.2495554157
0.2491499511
0.248724059
0.2482549101
0.2476878326
0.2469066986
0.2456757062
0.2435251185
0.2395312975
0.2319242108
0.2175461864
0.1918574036
0.1523164095
0.1400904963
0.1595808758
0.1807480323
0.2013836248
0.2190897825
0.2324603924
0.2413875225
0.2466796071
0.2494653908
0.2507459658
0.251215592
0.2512789219
0.2511428788
0.2509043668
0.2506077703
0.250275091
0.2499189793
0.2495469064
0.2491608047
0.2487535016
0.2483009607
0.2477470191
0.2469734713
0.2457412834
0.2435752761
0.2395424439
0.2318582037
0.2173536878
0.191535517
0.15208898
0.1401614524
0.159420236
0.1803847519
0.2009317806
0.2186701556
0.2321382103
0.2411710524
0.2465448418
0.2493800584
0.250684022
0.2511619088
0.2512277888
0.2510942925
0.2508609244
0.2505727255
0.2502513654
0.2499087479
0.2495514538
0.2491804773
0.2487876559
0.24834784
0.247803475
0.2470343907
0.2457984526
0.2436151837
0.2395423747
0.2317811912
0.2171526151
0.191212325
0.1518688348
0.1402219747
0.1592613522
0.1800301016
0.2004873368
0.2182558354
0.2318230856
0.2409663705
0.2464274979
0.2493165451
0.2506469353
0.2511346765
0.2512031809
0.2510710633
0.250840749
0.2505582123
0.2502450134
0.2499124845
0.249566456
0.2492070993
0.2488253615
0.2483950727
0.2478573794
0.2470902453
0.2458485362
0.2436465758
0.2395330515
0.2316951113
0.2169446017