/*--------------------------------*- C++ -*----------------------------------*\
  =========                 |
  \\      /  F ield         | OpenFOAM: The Open Source CFD Toolbox
   \\    /   O peration     | Website:  https://openfoam.org
    \\  /    A nd           | Version:  8
     \\/     M anipulation  |
\*---------------------------------------------------------------------------*/
FoamFile
{
    version     2.0;
    format      ascii;
    class       surfaceScalarField;
    location    "903";
    object      phi;
}
// * * * * * * * * * * * * * * * * * * * * * * * * * * * * * * * * * * * * * //

dimensions      [0 3 -1 0 0 0 0];

internalField   nonuniform List<scalar> 
12360
(
-2.106733804e-12
-3.535647909e-13
-5.971571794e-12
9.538211457e-12
-1.200288006e-11
3.025537832e-11
-2.041408332e-11
6.275373317e-11
-3.148563759e-11
1.089705278e-10
-4.550514485e-11
1.715742549e-10
-6.273953958e-11
2.539219143e-10
-8.340027681e-11
3.59887189e-10
-1.076076708e-10
4.936700319e-10
-1.353619175e-10
6.596630022e-10
-1.665229606e-10
8.623783106e-10
-2.007975148e-10
1.106410327e-09
-2.377306287e-10
1.396413345e-09
-2.766999489e-10
1.737085662e-09
-3.169116392e-10
2.13315702e-09
-3.573975378e-10
2.589378613e-09
-3.970133507e-10
3.110515173e-09
-4.344373117e-10
3.701338698e-09
-4.681701362e-10
4.366623747e-09
-4.965352089e-10
5.111144007e-09
-5.17679952e-10
5.939668465e-09
-5.29577861e-10
6.85695881e-09
-5.300337953e-10
7.867765498e-09
-5.166913672e-10
8.976824623e-09
-4.870499168e-10
1.018886858e-08
-4.384973798e-10
1.150873242e-08
-3.683857276e-10
1.294203065e-08
-2.741657376e-10
1.449905439e-08
-1.532495647e-10
1.621612514e-08
1.827881415e-08
-1.525974002e-12
1.172409222e-12
-5.736083233e-12
1.37483207e-11
-1.24073367e-11
3.692663179e-11
-2.166728436e-11
7.201368084e-11
-3.368889721e-11
1.209921407e-10
-4.867991632e-11
1.86565274e-10
-6.685635617e-11
2.720983541e-10
-8.840211465e-11
3.814329475e-10
-1.134227316e-10
5.186906489e-10
-1.419069262e-10
6.881471968e-10
-1.73702297e-10
8.941736814e-10
-2.085023338e-10
1.141210364e-09
-2.458395332e-10
1.433750545e-09
-2.850812027e-10
1.776327331e-09
-3.254266029e-10
2.17350242e-09
-3.659048119e-10
2.629856822e-09
-4.053733973e-10
3.149983758e-09
-4.425176889e-10
3.73848299e-09
-4.75850719e-10
4.399956777e-09
-5.037134843e-10
5.139006772e-09
-5.242766508e-10
5.960231632e-09
-5.355425928e-10
6.868224752e-09
-5.353486559e-10
7.867571561e-09
-5.213733227e-10
8.96284929e-09
-4.911461717e-10
1.015864143e-08
-4.420675638e-10
1.145965381e-08
-3.71447415e-10
1.287141051e-08
-2.765046493e-10
1.440411163e-08
-1.540662185e-10
1.609368671e-08
1.812474793e-08
-1.330577393e-12
2.502986626e-12
-5.320671054e-12
1.773841438e-11
-1.206731357e-11
4.367327432e-11
-2.166673791e-11
8.16131052e-11
-3.421125181e-11
1.335366546e-10
-4.981407239e-11
2.021680946e-10
-6.861291535e-11
2.908971971e-10
-9.074209952e-11
4.035621317e-10
-1.162828849e-10
5.442314343e-10
-1.45214519e-10
7.170788309e-10
-1.773811334e-10
9.263402958e-10
-2.124744677e-10
1.176303698e-09
-2.500257764e-10
1.471301853e-09
-2.894017422e-10
1.815703297e-09
-3.298019271e-10
2.213902605e-09
-3.702570347e-10
2.67031193e-09
-4.096277766e-10
3.1893545e-09
-4.466039893e-10
3.775459203e-09
-4.797048036e-10
4.433057592e-09
-5.072787296e-10
5.166580698e-09
-5.275047447e-10
5.980457647e-09
-5.38393931e-10
6.879113938e-09
-5.377925375e-10
7.866970168e-09
-5.233868772e-10
8.948443629e-09
-4.927116735e-10
1.012796623e-08
-4.431675797e-10
1.141010972e-08
-3.720415577e-10
1.280028448e-08
-2.764981252e-10
1.430856819e-08
-1.535718664e-10
1.597076045e-08
1.797117606e-08
-1.263120253e-12
3.766106892e-12
-5.232821977e-12
2.170811611e-11
-1.211604359e-11
5.055649595e-11
-2.204225905e-11
9.153932067e-11
-3.508383506e-11
1.465782307e-10
-5.129996006e-11
2.183842196e-10
-7.076292872e-11
3.103601658e-10
-9.355000242e-11
4.263492054e-10
-1.197026232e-10
5.703840551e-10
-1.491754945e-10
7.465517022e-10
-1.81797581e-10
9.589623823e-10
-2.172503912e-10
1.211756508e-09
-2.550579054e-10
1.509109368e-09
-2.945818886e-10
1.85522728e-09
-3.350193048e-10
2.254340021e-09
-3.754006959e-10
2.710693321e-09
-4.145888664e-10
3.22854267e-09
-4.512786934e-10
3.81214903e-09
-4.839965006e-10
4.465775399e-09
-5.111008973e-10
5.193685095e-09
-5.307839069e-10
6.000140657e-09
-5.410728111e-10
6.889402842e-09
-5.3983406e-10
7.865731417e-09
-5.247786917e-10
8.933388261e-09
-4.93472779e-10
1.009666032e-08
-4.433521928e-10
1.135998913e-08
-3.717435755e-10
1.272867587e-08
-2.758904851e-10
1.42127151e-08
-1.530565503e-10
1.584792651e-08
1.781811951e-08
-1.262251936e-12
5.028358839e-12
-5.304185596e-12
2.575004979e-11
-1.23661158e-11
5.761842618e-11
-2.260082018e-11
1.017740251e-10
-3.608213933e-11
1.600595498e-10
-5.284416854e-11
2.351462488e-10
-7.291504239e-11
3.304310397e-10
-9.63230339e-11
4.49757197e-10
-1.230680298e-10
5.971290511e-10
-1.530747429e-10
7.765584153e-10
-1.86151628e-10
9.920392674e-10
-2.219658923e-10
1.247570773e-09
-2.600313833e-10
1.547174859e-09
-2.997030548e-10
1.894898952e-09
-3.401741233e-10
2.29481109e-09
-3.804743754e-10
2.750993573e-09
-4.194690449e-10
3.26753734e-09
-4.558582937e-10
3.848538278e-09
-4.881773371e-10
4.498094442e-09
-5.147971349e-10
5.220304893e-09
-5.339255446e-10
6.019269066e-09
-5.436104336e-10
6.899087731e-09
-5.417433069e-10
7.86386429e-09
-5.260655718e-10
8.917710526e-09
-4.941787408e-10
1.006477349e-08
-4.435583926e-10
1.130936878e-08
-3.715744169e-10
1.265669189e-08
-2.755389644e-10
1.411667965e-08
-1.528148434e-10
1.572520239e-08
1.766530467e-08
-1.302725828e-12
6.331084677e-12
-5.47487088e-12
2.992219485e-11
-1.275713721e-11
6.490069252e-11
-2.330846395e-11
1.123253518e-10
-3.720491394e-11
1.739559998e-10
-5.446871335e-11
2.524100483e-10
-7.509977819e-11
3.510621045e-10
-9.908824204e-11
4.737456608e-10
-1.26396126e-10
6.24436935e-10
-1.569172807e-10
8.0707957e-10
-1.904373077e-10
1.025559294e-09
-2.266068762e-10
1.283740341e-09
-2.649279639e-10
1.585495946e-09
-3.047475104e-10
1.934718498e-09
-3.452542292e-10
2.335317809e-09
-3.854767703e-10
2.791216114e-09
-4.242827835e-10
3.306343353e-09
-4.603783041e-10
3.884633799e-09
-4.923080236e-10
4.530024162e-09
-5.184560312e-10
5.2464529e-09
-5.370477125e-10
6.037860748e-09
-5.461522101e-10
6.908192229e-09
-5.436867568e-10
7.861398837e-09
-5.274230613e-10
8.901446831e-09
-4.949957946e-10
1.003234622e-08
-4.439159978e-10
1.125828899e-08
-3.715926e-10
1.258436849e-08
-2.753871394e-10
1.402047419e-08
-1.527111416e-10
1.560252639e-08
1.751259353e-08
-1.363851426e-12
7.694936112e-12
-5.702890218e-12
3.426123365e-11
-1.324004789e-11
7.24378502e-11
-2.412588253e-11
1.232111865e-10
-3.84328478e-11
1.882629651e-10
-5.617519776e-11
2.701523982e-10
-7.733415954e-11
3.722210663e-10
-1.018709447e-10
4.98282446e-10
-1.297150112e-10
6.522810016e-10
-1.607308037e-10
8.380953625e-10
-1.946805985e-10
1.059509089e-09
-2.311975403e-10
1.320257283e-09
-2.697708473e-10
1.624069253e-09
-3.097387346e-10
1.974686385e-09
-3.502849376e-10
2.375864012e-09
-3.904367317e-10
2.831367908e-09
-4.290639942e-10
3.344970616e-09
-4.648786351e-10
3.92044844e-09
-4.964348579e-10
4.561580385e-09
-5.221302213e-10
5.272148264e-09
-5.402071127e-10
6.055937639e-09
-5.487558802e-10
6.916740996e-09
-5.457185709e-10
7.858361528e-09
-5.288948446e-10
8.884623104e-09
-4.959503248e-10
9.9994017e-09
-4.444274847e-10
1.120676615e-08
-3.717696429e-10
1.251171065e-08
-2.753767249e-10
1.392408127e-08
-1.526884018e-10
1.547983807e-08
1.735990512e-08
-1.434786198e-12
9.129722317e-12
-5.962112519e-12
3.878855998e-11
-1.377855366e-11
8.025429135e-11
-2.501627768e-11
1.344489105e-10
-3.973740787e-11
2.029840953e-10
-5.794765133e-11
2.883626417e-10
-7.96142348e-11
3.938876498e-10
-1.046760325e-10
5.233442437e-10
-1.330349704e-10
6.806399395e-10
-1.645285144e-10
8.695889065e-10
-1.988961876e-10
1.093876763e-09
-2.357534033e-10
1.357114499e-09
-2.745762479e-10
1.662892098e-09
-3.146938478e-10
2.014803985e-09
-3.5528461e-10
2.416454774e-09
-3.953742369e-10
2.871457535e-09
-4.338345276e-10
3.383430906e-09
-4.693830003e-10
3.955996913e-09
-5.005832574e-10
4.592780642e-09
-5.258455595e-10
5.297410566e-09
-5.43429066e-10
6.073521146e-09
-5.514440254e-10
6.924755956e-09
-5.478560477e-10
7.85477355e-09
-5.304909603e-10
8.867258017e-09
-4.970420965e-10
9.965952836e-09
-4.45081575e-10
1.115480562e-08
-3.720816446e-10
1.243871072e-08
-2.754738836e-10
1.382747351e-08
-1.527212596e-10
1.535708545e-08
1.720718386e-08
-1.510813754e-12
1.064053608e-11
-6.239223175e-12
4.351696941e-11
-1.435157598e-11
8.836664416e-11
-2.595546113e-11
1.460527956e-10
-4.109713988e-11
2.181257741e-10
-5.977153656e-11
3.070370384e-10
-8.19336951e-11
4.160498083e-10
-1.075043508e-10
5.489148994e-10
-1.363620522e-10
7.094976409e-10
-1.683198705e-10
9.015467248e-10
-2.030956397e-10
1.128652532e-09
-2.402873146e-10
1.394306173e-09
-2.793577635e-10
1.701962547e-09
-3.196268437e-10
2.055073066e-09
-3.602674573e-10
2.457095388e-09
-4.003033859e-10
2.911493464e-09
-4.386081305e-10
3.421735651e-09
-4.739044828e-10
3.991293265e-09
-5.047646856e-10
4.623640844e-09
-5.296116137e-10
5.322257494e-09
-5.4672004e-10
6.090629572e-09
-5.542192455e-10
6.932255161e-09
-5.500966543e-10
7.850650959e-09
-5.322025827e-10
8.849363945e-09
-4.982562234e-10
9.932006477e-09
-4.458557456e-10
1.110240515e-08
-3.725008276e-10
1.23653558e-08
-2.756511782e-10
1.373062386e-08
-1.527922049e-10
1.523422647e-08
1.705439166e-08
-1.589971905e-12
1.223050798e-11
-6.52780395e-12
4.845480146e-11
-1.49477215e-11
9.678656172e-11
-2.692906028e-11
1.580341344e-10
-4.249814469e-11
2.336948585e-10
-6.163666886e-11
3.261755626e-10
-8.428770969e-11
4.387008492e-10
-1.10356386e-10
5.749835757e-10
-1.397010182e-10
7.38842273e-10
-1.721126397e-10
9.339583464e-10
-2.07288675e-10
1.163828567e-09
-2.448101157e-10
1.431827614e-09
-2.841267329e-10
1.741279164e-09
-3.245490802e-10
2.095495413e-09
-3.652443369e-10
2.497790644e-09
-4.052342205e-10
2.951483347e-09
-4.433935178e-10
3.459894948e-09
-4.784499337e-10
4.026349681e-09
-5.089841556e-10
4.654175066e-09
-5.334304425e-10
5.346703781e-09
-5.500786277e-10
6.107277757e-09
-5.570759455e-10
6.939252479e-09
-5.524305837e-10
7.846005597e-09
-5.340153011e-10
8.830948663e-09
-4.995735743e-10
9.89756475e-09
-4.467278839e-10
1.104955946e-08
-3.730031756e-10
1.229163109e-08
-2.758872488e-10
1.363350794e-08
-1.528894069e-10
1.511122863e-08
1.690150225e-08
-1.671497687e-12
1.390200567e-11
-6.824832347e-12
5.360813612e-11
-1.556093984e-11
1.055226692e-10
-2.792869238e-11
1.70401887e-10
-4.393167732e-11
2.496978434e-10
-6.35361539e-11
3.457800391e-10
-8.667276491e-11
4.618374602e-10
-1.132323824e-10
6.015431932e-10
-1.430553474e-10
7.68665238e-10
-1.759126992e-10
9.668156981e-10
-2.114827222e-10
1.19939859e-09
-2.493300721e-10
1.469674964e-09
-2.888916607e-10
1.780840753e-09
-3.294687599e-10
2.136072512e-09
-3.702228121e-10
2.538544697e-09
-4.101730375e-10
2.991433573e-09
-4.481955086e-10
3.497917419e-09
-4.830223643e-10
4.061176537e-09
-5.132419873e-10
4.684394689e-09
-5.372998532e-10
5.370761647e-09
-5.534996296e-10
6.123477534e-09
-5.600059169e-10
6.945758767e-09
-5.548459395e-10
7.84084562e-09
-5.359141304e-10
8.812016854e-09
-5.009761552e-10
9.862626775e-09
-4.476782446e-10
1.099626155e-08
-3.735695242e-10
1.221752237e-08
-2.761665132e-10
1.353610492e-08
-1.530054848e-10
1.49880676e-08
1.674849677e-08
-1.755137687e-12
1.565714336e-11
-7.128925506e-12
5.898192394e-11
-1.618804438e-11
1.145817881e-10
-2.894950645e-11
1.83163349e-10
-4.539226244e-11
2.661405994e-10
-6.546540044e-11
3.658531771e-10
-8.908637689e-11
4.854584367e-10
-1.161324397e-10
6.28589256e-10
-1.464275583e-10
7.989603566e-10
-1.797244228e-10
1.000112563e-09
-2.156833643e-10
1.235357532e-09
-2.5385337e-10
1.50784497e-09
-2.936588135e-10
1.820646196e-09
-3.343917757e-10
2.176805474e-09
-3.752078356e-10
2.579360756e-09
-4.151238536e-10
3.031349591e-09
-4.530166218e-10
3.535810188e-09
-4.876223699e-10
4.095782285e-09
-5.175368307e-10
4.71430915e-09
-5.412158224e-10
5.394440639e-09
-5.569766729e-10
6.139238384e-09
-5.629996659e-10
6.95178176e-09
-5.573308518e-10
7.835176805e-09
-5.378847309e-10
8.792570733e-09
-5.02448384e-10
9.827190428e-09
-4.486906094e-10
1.094250377e-08
-3.741850001e-10
1.214301676e-08
-2.764785106e-10
1.343839843e-08
-1.531351483e-10
1.486472424e-08
1.659536162e-08
-1.840831276e-12
1.749797464e-11
-7.4394671e-12
6.458055976e-11
-1.682732933e-11
1.239696503e-10
-2.998863432e-11
1.96324654e-10
-4.687643604e-11
2.830284011e-10
-6.742129799e-11
3.863980391e-10
-9.152671237e-11
5.09563851e-10
-1.190565321e-10
6.561190758e-10
-1.498194075e-10
8.29723232e-10
-1.835510001e-10
1.033844155e-09
-2.198947447e-10
1.271701276e-09
-2.583846147e-10
1.54633484e-09
-2.984328088e-10
1.86069439e-09
-3.393223536e-10
2.217695019e-09
-3.802030007e-10
2.620241404e-09
-4.200890038e-10
3.071235594e-09
-4.578577311e-10
3.573578915e-09
-4.922491959e-10
4.130173749e-09
-5.218659577e-10
4.743925912e-09
-5.451738506e-10
5.417748532e-09
-5.605027385e-10
6.154567272e-09
-5.660484878e-10
6.957327509e-09
-5.59874343e-10
7.829002661e-09
-5.399142711e-10
8.772610661e-09
-5.039764223e-10
9.791252579e-09
-4.497514343e-10
1.088827878e-08
-3.748381672e-10
1.20681035e-08
-2.768149281e-10
1.33403752e-08
-1.532748211e-10
1.474118413e-08
1.64420868e-08
-1.928581659e-12
1.942655629e-11
-7.75616623e-12
7.040814432e-11
-1.747784067e-11
1.336913248e-10
-3.104431158e-11
2.098911249e-10
-4.838188411e-11
3.003659737e-10
-6.940163111e-11
4.074177861e-10
-9.399234869e-11
5.341545686e-10
-1.220044696e-10
6.841311967e-10
-1.532320435e-10
8.609508059e-10
-1.873946946e-10
1.068006806e-09
-2.241198724e-10
1.308426454e-09
-2.629271861e-10
1.585142153e-09
-3.032170141e-10
1.900984218e-09
-3.442635105e-10
2.258741515e-09
-3.852106322e-10
2.661188525e-09
-4.250698552e-10
3.111094817e-09
-4.627190274e-10
3.611228087e-09
-4.969015862e-10
4.164356308e-09
-5.26226578e-10
4.773250904e-09
-5.49169177e-10
5.440691131e-09
-5.640715735e-10
6.169469669e-09
-5.691439233e-10
6.962399859e-09
-5.624667136e-10
7.822325451e-09
-5.419923647e-10
8.752136312e-09
-5.055493674e-10
9.754809582e-09
-4.508504666e-10
1.083357988e-08
-3.755201139e-10
1.199277314e-08
-2.771699488e-10
1.324202503e-08
-1.534229287e-10
1.461743711e-08
1.628866387e-08
-2.018390096e-12
2.144494639e-11
-8.078845607e-12
7.646859983e-11
-1.813896396e-11
1.437514431e-10
-3.211534554e-11
2.238675065e-10
-4.990698867e-11
3.181576168e-10
-7.140474069e-11
4.289155381e-10
-9.648209568e-11
5.592319236e-10
-1.249759301e-10
7.126250311e-10
-1.566661022e-10
8.92640978e-10
-1.912570062e-10
1.10259771e-09
-2.283608776e-10
1.345530325e-09
-2.674835123e-10
1.624264788e-09
-3.080138399e-10
1.941514546e-09
-3.492173025e-10
2.299944978e-09
-3.902321276e-10
2.70220335e-09
-4.30067038e-10
3.150929727e-09
-4.676000047e-10
3.648761054e-09
-5.015777665e-10
4.19833407e-09
-5.306155054e-10
4.802288643e-09
-5.531973136e-10
5.463272939e-09
-5.676768439e-10
6.183949199e-09
-5.72278582e-10
6.967001597e-09
-5.650992175e-10
7.815146086e-09
-5.441094604e-10
8.731146555e-09
-5.071575624e-10
9.717857684e-09
-4.519788014e-10
1.077840112e-08
-3.762244931e-10
1.191701884e-08
-2.775396102e-10
1.314334015e-08
-1.53576949e-10
1.449347445e-08
1.613508692e-08
-2.110252098e-12
2.355519848e-11
-8.407375189e-12
8.276572292e-11
-1.881025671e-11
1.541543246e-10
-3.320087061e-11
2.382581204e-10
-5.145050909e-11
3.364072553e-10
-7.342929216e-11
4.508943212e-10
-9.899490259e-11
5.84797534e-10
-1.279704489e-10
7.416005774e-10
-1.60121871e-10
9.247924001e-10
-1.951389237e-10
1.137614763e-09
-2.326192405e-10
1.383010642e-09
-2.720553459e-10
1.663700893e-09
-3.128250402e-10
1.98228424e-09
-3.541852969e-10
2.341305235e-09
-3.95268598e-10
2.743286652e-09
-4.350808284e-10
3.190741958e-09
-4.725001726e-10
3.686180398e-09
-5.062761076e-10
4.232110005e-09
-5.350298441e-10
4.831042379e-09
-5.572539751e-10
5.48549707e-09
-5.713134048e-10
6.198008629e-09
-5.754461414e-10
6.971134333e-09
-5.677647133e-10
7.807464658e-09
-5.462579286e-10
8.70963977e-09
-5.087937169e-10
9.680393472e-09
-4.531299106e-10
1.072273731e-08
-3.769453898e-10
1.184083432e-08
-2.779203132e-10
1.304431507e-08
-1.537356436e-10
1.436928978e-08
1.598135128e-08
-2.204141908e-12
2.575934038e-11
-8.741603989e-12
8.930318499e-11
-1.949131955e-11
1.649040402e-10
-3.430016546e-11
2.530669663e-10
-5.301143703e-11
3.551185268e-10
-7.54741666e-11
4.733570507e-10
-1.015298067e-10
6.108531741e-10
-1.309874878e-10
7.710582585e-10
-1.635993818e-10
9.57404294e-10
-1.990410017e-10
1.173056383e-09
-2.368959491e-10
1.420865589e-09
-2.766438942e-10
1.703448839e-09
-3.176518579e-10
2.023292204e-09
-3.591684396e-10
2.382821816e-09
-4.003205251e-10
2.784438737e-09
-4.401112055e-10
3.230532638e-09
-4.774184828e-10
3.723487675e-09
-5.109948916e-10
4.265686414e-09
-5.394668671e-10
4.859514354e-09
-5.613353879e-10
5.507365591e-09
-5.749762014e-10
6.211649442e-09
-5.786407767e-10
6.974798909e-09
-5.704570284e-10
7.79928091e-09
-5.484310247e-10
8.687613766e-09
-5.104513894e-10
9.642413837e-09
-4.542982699e-10
1.06665842e-08
-3.776791734e-10
1.176421522e-08
-2.783097573e-10
1.294494565e-08
-1.538989201e-10
1.424487895e-08
1.582745236e-08
-2.300014241e-12
2.805935462e-11
-9.081362754e-12
9.60845335e-11
-2.018179867e-11
1.760044761e-10
-3.541261442e-11
2.68297782e-10
-5.458892058e-11
3.74294833e-10
-7.753839587e-11
4.96306526e-10
-1.04085937e-10
6.374007153e-10
-1.340264755e-10
8.009987969e-10
-1.6709846e-10
9.904762786e-10
-2.029635286e-10
1.208921452e-09
-2.411916287e-10
1.45909369e-09
-2.81249993e-10
1.743507203e-09
-3.224950999e-10
2.064537311e-09
-3.641674611e-10
2.424494178e-09
-4.05388376e-10
2.825659652e-09
-4.451580358e-10
3.270302298e-09
-4.823543256e-10
3.760683965e-09
-5.157323529e-10
4.299064441e-09
-5.439241061e-10
4.887706108e-09
-5.654383732e-10
5.528879858e-09
-5.786614851e-10
6.224872554e-09
-5.818577112e-10
6.977995135e-09
-5.731704321e-10
7.790593631e-09
-5.506235903e-10
8.665066925e-09
-5.121252124e-10
9.603915459e-09
-4.554796505e-10
1.060993863e-08
-3.784225581e-10
1.168715813e-08
-2.787059439e-10
1.284522904e-08
-1.540651432e-10
1.412023815e-08
1.567338721e-08
-2.397814602e-12
3.045716922e-11
-9.426471842e-12
1.031131907e-10
-2.088131946e-11
1.874593237e-10
-3.65376249e-11
2.839540875e-10
-5.618217815e-11
3.939393862e-10
-7.962110082e-11
5.197454487e-10
-1.066624762e-10
6.644420907e-10
-1.370868161e-10
8.314231368e-10
-1.706188742e-10
1.024008337e-09
-2.069066001e-10
1.245209178e-09
-2.455067042e-10
1.497693794e-09
-2.858742457e-10
1.783874744e-09
-3.273554428e-10
2.106018508e-09
-3.691828553e-10
2.46632159e-09
-4.10472284e-10
2.866949081e-09
-4.502210627e-10
3.310051076e-09
-4.873069459e-10
3.797769849e-09
-5.204873616e-10
4.332244857e-09
-5.483994428e-10
4.915618189e-09
-5.695598742e-10
5.550040289e-09
-5.823653388e-10
6.237678019e-09
-5.850928981e-10
6.980722694e-09
-5.759010405e-10
7.781401773e-09
-5.528310983e-10
8.641996982e-09
-5.138116071e-10
9.564895967e-09
-4.566703068e-10
1.055279733e-08
-3.791730977e-10
1.160966092e-08
-2.791078524e-10
1.27451638e-08
-1.542344828e-10
1.399536478e-08
1.551915273e-08
-2.497477102e-12
3.295464632e-11
-9.776722587e-12
1.103924362e-10
-2.158951536e-11
1.992721165e-10
-3.767468748e-11
3.000392596e-10
-5.779054078e-11
4.140552395e-10
-8.172153266e-11
5.436764406e-10
-1.092586917e-10
6.919792497e-10
-1.401679621e-10
8.623324071e-10
-1.741603386e-10
1.058000713e-09
-2.108702847e-10
1.281919124e-09
-2.498414596e-10
1.536664969e-09
-2.905171281e-10
1.824550413e-09
-3.322334859e-10
2.147734866e-09
-3.74215146e-10
2.50830325e-09
-4.155725656e-10
2.9083065e-09
-4.553002217e-10
3.349778733e-09
-4.922755438e-10
3.834745171e-09
-5.252585388e-10
4.365227852e-09
-5.528911385e-10
4.943250789e-09
-5.736977522e-10
5.570846903e-09
-5.860850645e-10
6.250065331e-09
-5.883429002e-10
6.98298053e-09
-5.786448937e-10
7.771703767e-09
-5.550499692e-10
8.618402058e-09
-5.15506908e-10
9.525352906e-09
-4.578679465e-10
1.049515837e-08
-3.799288845e-10
1.153172186e-08
-2.795140457e-10
1.264474896e-08
-1.544060276e-10
1.387025676e-08
1.53647467e-08
-2.598925267e-12
3.555357158e-11
-1.013191473e-11
1.179254257e-10
-2.230604043e-11
2.114462422e-10
-3.882328198e-11
3.165565011e-10
-5.94133822e-11
4.346453397e-10
-8.383901678e-11
5.681020751e-10
-1.118739818e-10
7.200142147e-10
-1.432694364e-10
8.937278617e-10
-1.777226239e-10
1.092453901e-09
-2.148545892e-10
1.319051089e-09
-2.541961995e-10
1.576006579e-09
-2.951791247e-10
1.865533338e-09
-3.371296355e-10
2.189685377e-09
-3.79264752e-10
2.550438367e-09
-4.206895302e-10
2.949731278e-09
-4.603955393e-10
3.389484742e-09
-4.972600137e-10
3.871609645e-09
-5.300450623e-10
4.3980129e-09
-5.573978429e-10
4.970603569e-09
-5.778499924e-10
5.591299052e-09
-5.898183253e-10
6.262033664e-09
-5.916053459e-10
6.98476755e-09
-5.813994237e-10
7.761497845e-09
-5.572774305e-10
8.594280065e-09
-5.172085316e-10
9.485284007e-09
-4.590701722e-10
1.043702001e-08
-3.806886086e-10
1.145334029e-08
-2.799237326e-10
1.254398408e-08
-1.545799135e-10
1.374491294e-08
1.521016679e-08
-2.702086191e-12
3.825565777e-11
-1.049184045e-11
1.257151799e-10
-2.303054493e-11
2.239849467e-10
-3.998298042e-11
3.335089366e-10
-6.10501903e-11
4.557125496e-10
-8.597299901e-11
5.930248838e-10
-1.145078363e-10
7.48549052e-10
-1.463909091e-10
9.256109345e-10
-1.813055927e-10
1.127368584e-09
-2.188596435e-10
1.35660514e-09
-2.585712806e-10
1.615718216e-09
-2.998607196e-10
1.906822777e-09
-3.420446119e-10
2.231869269e-09
-3.843323213e-10
2.592726076e-09
-4.258236097e-10
2.991222567e-09
-4.655072929e-10
3.429168425e-09
-5.022601594e-10
3.908362512e-09
-5.34846747e-10
4.430599488e-09
-5.619187034e-10
4.997675525e-09
-5.820153042e-10
5.611395653e-09
-5.935634556e-10
6.273581815e-09
-5.948777973e-10
6.986081892e-09
-5.841621613e-10
7.750782209e-09
-5.595110593e-10
8.569628963e-09
-5.189148968e-10
9.444687845e-09
-4.602754273e-10
1.037838054e-08
-3.814508857e-10
1.137451575e-08
-2.803367345e-10
1.244286993e-08
-1.54755946e-10
1.361933215e-08
1.505541084e-08
-2.806884729e-12
4.10625425e-11
-1.085629327e-11
1.337645885e-10
-2.376273351e-11
2.368913869e-10
-4.115337639e-11
3.508995795e-10
-6.270053438e-11
4.772597076e-10
-8.812308048e-11
6.184474299e-10
-1.171599085e-10
7.7758588e-10
-1.495321757e-10
9.579832018e-10
-1.849092963e-10
1.162745705e-09
-2.228857363e-10
1.39458158e-09
-2.629672203e-10
1.6557997e-09
-3.045627031e-10
1.94841826e-09
-3.469792265e-10
2.274285792e-09
-3.894187157e-10
2.635165565e-09
-4.309757068e-10
3.032779558e-09
-4.706360958e-10
3.468828814e-09
-5.072764533e-10
3.945002869e-09
-5.396633739e-10
4.462986408e-09
-5.664533827e-10
5.024465534e-09
-5.861931091e-10
5.631135379e-09
-5.973192109e-10
6.284707917e-09
-5.981591859e-10
6.986921867e-09
-5.869318636e-10
7.739554886e-09
-5.617495635e-10
8.544446662e-09
-5.206239306e-10
9.403562212e-09
-4.614829255e-10
1.031923954e-08
-3.822153315e-10
1.129524816e-08
-2.807522929e-10
1.234140689e-08
-1.549335774e-10
1.349351344e-08
1.490047727e-08
-2.91324599e-12
4.397578848e-11
-1.122510173e-11
1.420764442e-10
-2.45023197e-11
2.501686049e-10
-4.233417376e-11
3.687314335e-10
-6.436410064e-11
4.992896345e-10
-9.028896717e-11
6.443722965e-10
-1.198300563e-10
8.071269691e-10
-1.526932509e-10
9.908463963e-10
-1.885339614e-10
1.198586415e-09
-2.269333674e-10
1.432980986e-09
-2.673847749e-10
1.696251108e-09
-3.092859585e-10
1.990319443e-09
-3.519346363e-10
2.31693447e-09
-3.945250995e-10
2.677756028e-09
-4.361468656e-10
3.074401324e-09
-4.757829927e-10
3.508464941e-09
-5.123096308e-10
3.981529507e-09
-5.444954751e-10
4.495172253e-09
-5.710020854e-10
5.050972145e-09
-5.903830743e-10
5.650516368e-09
-6.010853107e-10
6.295410153e-09
-6.014486331e-10
6.987285189e-09
-5.897073395e-10
7.727813593e-09
-5.639919731e-10
8.518731296e-09
-5.22335416e-10
9.361905655e-09
-4.626915472e-10
1.025959567e-08
-3.829814152e-10
1.121553802e-08
-2.811703231e-10
1.22395958e-08
-1.551131522e-10
1.336745626e-08
1.474536411e-08
-3.021102958e-12
4.699689144e-11
-1.159809142e-11
1.506534327e-10
-2.524909363e-11
2.638196071e-10
-4.352512258e-11
3.870074625e-10
-6.604069559e-11
5.218052075e-10
-9.247058315e-11
6.70802184e-10
-1.225183228e-10
8.371747088e-10
-1.558743959e-10
1.024202469e-09
-1.921801186e-10
1.234892138e-09
-2.310033477e-10
1.471804215e-09
-2.718250472e-10
1.737072807e-09
-3.140319586e-10
2.032526355e-09
-3.569122684e-10
2.35981478e-09
-3.996532002e-10
2.72049696e-09
-4.41338854e-10
3.116086978e-09
-4.809495572e-10
3.548075644e-09
-5.173610879e-10
4.017941038e-09
-5.493445179e-10
4.527155683e-09
-5.755656825e-10
5.077193309e-09
-5.945859699e-10
5.669536656e-09
-6.04861917e-10
6.305686101e-09
-6.047462994e-10
6.987169572e-09
-5.924885995e-10
7.715555893e-09
-5.662375488e-10
8.492480245e-09
-5.240485652e-10
9.319716671e-09
-4.639013053e-10
1.019944841e-08
-3.837489594e-10
1.113538568e-08
-2.815906372e-10
1.213743748e-08
-1.552946555e-10
1.324116028e-08
1.459006946e-08
-3.130401798e-12
5.012729324e-11
-1.197514155e-11
1.594981724e-10
-2.600290154e-11
2.778473671e-10
-4.472612295e-11
4.057306839e-10
-6.773028255e-11
5.448093671e-10
-9.466804679e-11
6.977399483e-10
-1.252250099e-10
8.677316719e-10
-1.590761973e-10
1.058053657e-09
-1.958486347e-10
1.271664576e-09
-2.350968843e-10
1.511052464e-09
-2.76289565e-10
1.778265488e-09
-3.188023729e-10
2.075039163e-09
-3.619142951e-10
2.402926702e-09
-4.048050505e-10
2.763387716e-09
-4.465537802e-10
3.157835708e-09
-4.861379994e-10
3.587659863e-09
-5.224330487e-10
4.054236087e-09
-5.542120294e-10
4.558934663e-09
-5.801457535e-10
5.103127033e-09
-5.988028503e-10
5.688193752e-09
-6.086500202e-10
6.31553327e-09
-6.080525543e-10
6.986572106e-09
-5.95275668e-10
7.702779006e-09
-5.684869597e-10
8.465691537e-09
-5.257634196e-10
9.276993131e-09
-4.651121403e-10
1.013879713e-08
-3.845179309e-10
1.105479147e-08
-2.820137943e-10
1.203493334e-08
-1.554778158e-10
1.31146243e-08
1.443459164e-08
-3.24108383e-12
5.336837706e-11
-1.235615883e-11
1.686132474e-10
-2.67636429e-11
2.922548511e-10
-4.593715008e-11
4.249041911e-10
-6.943303059e-11
5.683052476e-10
-9.688168246e-11
7.251886001e-10
-1.279507453e-10
8.988007347e-10
-1.622995535e-10
1.092402465e-09
-1.995407768e-10
1.308905799e-09
-2.392156223e-10
1.55072731e-09
-2.807803341e-10
1.8198302e-09
-3.235996695e-10
2.117858498e-09
-3.669432812e-10
2.446270314e-09
-4.099836623e-10
2.806428097e-09
-4.517946755e-10
3.199646721e-09
-4.913511217e-10
3.627216309e-09
-5.275280663e-10
4.090413032e-09
-5.591006673e-10
4.590507264e-09
-5.847446302e-10
5.128770996e-09
-6.030357742e-10
5.706484896e-09
-6.12451079e-10
6.324948575e-09
-6.113688104e-10
6.985489837e-09
-5.980698637e-10
7.68948006e-09
-5.707406482e-10
8.438362322e-09
-5.274807969e-10
9.23373328e-09
-4.663245528e-10
1.007764089e-08
-3.852890788e-10
1.097375599e-08
-2.824390965e-10
1.193208336e-08
-1.55662568e-10
1.298784778e-08
1.427892907e-08
-3.353121098e-12
5.672149816e-11
-1.274107897e-11
1.780012053e-10
-2.753134508e-11
3.070451172e-10
-4.71583714e-11
4.445312174e-10
-7.114926548e-11
5.922961417e-10
-9.911215025e-11
7.531514849e-10
-1.306964946e-10
9.303850791e-10
-1.655458066e-10
1.127251777e-09
-2.032583412e-10
1.346618333e-09
-2.433617709e-10
1.590830739e-09
-2.853000163e-10
1.861768445e-09
-3.28426814e-10
2.160985296e-09
-3.720025939e-10
2.489846094e-09
-4.151924946e-10
2.849617997e-09
-4.570653361e-10
3.241519562e-09
-4.965929705e-10
3.666743944e-09
-5.326501039e-10
4.126470165e-09
-5.640142759e-10
4.621871436e-09
-5.893656095e-10
5.15412233e-09
-6.072877943e-10
5.724407081e-09
-6.162678008e-10
6.333928582e-09
-6.146971113e-10
6.983919148e-09
-6.008724984e-10
7.675655447e-09
-5.729997409e-10
8.410489564e-09
-5.292014957e-10
9.189935034e-09
-4.675389661e-10
1.001597836e-08
-3.860622788e-10
1.089227931e-08
-2.828676246e-10
1.18288887e-08
-1.558498357e-10
1.286082999e-08
1.412307924e-08
-3.466491412e-12
6.018798957e-11
-1.312991364e-11
1.876646275e-10
-2.830609438e-11
3.22221298e-10
-4.839007496e-11
4.64615198e-10
-7.287961385e-11
6.167856806e-10
-1.013603814e-10
7.816322525e-10
-1.334635954e-10
9.62488293e-10
-1.688168294e-10
1.162605011e-09
-2.070036568e-10
1.384805161e-09
-2.475382276e-10
1.63136531e-09
-2.89851986e-10
1.904082203e-09
-3.332877832e-10
2.204421093e-09
-3.7709657e-10
2.533654881e-09
-4.204362252e-10
2.892957652e-09
-4.623704506e-10
3.283453788e-09
-5.0186824e-10
3.706241733e-09
-5.378039254e-10
4.162405851e-09
-5.689571214e-10
4.653024632e-09
-5.940129611e-10
5.17917817e-09
-6.115626231e-10
5.741956743e-09
-6.201035711e-10
6.34246953e-09
-6.180402774e-10
6.981855854e-09
-6.036862182e-10
7.661301388e-09
-5.752663882e-10
8.382069734e-09
-5.309266777e-10
9.145595324e-09
-4.687569206e-10
9.953808599e-09
-3.868387434e-10
1.081036113e-08
-2.832996634e-10
1.172534962e-08
-1.560389204e-10
1.273356924e-08
1.396704032e-08
-3.581184335e-12
6.37691739e-11
-1.352272428e-11
1.976061674e-10
-2.908815048e-11
3.377867242e-10
-4.963279881e-11
4.851598463e-10
-7.462493116e-11
6.417778129e-10
-1.036277127e-10
8.10635034e-10
-1.362539542e-10
9.951145345e-10
-1.721150277e-10
1.198466085e-09
-2.107798004e-10
1.423469934e-09
-2.517486873e-10
1.672334197e-09
-2.944406902e-10
1.946774206e-09
-3.3818738e-10
2.248167783e-09
-3.822305811e-10
2.577698082e-09
-4.257206395e-10
2.936447711e-09
-4.677161004e-10
3.325449249e-09
-5.071830436e-10
3.745708676e-09
-5.429954823e-10
4.198218289e-09
-5.739350609e-10
4.683964211e-09
-5.986920967e-10
5.203935205e-09
-6.158652253e-10
5.759129872e-09
-6.239626275e-10
6.350566932e-09
-6.214023549e-10
6.979295582e-09
-6.065142553e-10
7.646413288e-09
-5.775431428e-10
8.353098622e-09
-5.326589234e-10
9.100711105e-09
-4.699795651e-10
9.891129241e-09
-3.876193676e-10
1.072800093e-08
-2.837355252e-10
1.162146578e-08
-1.562301508e-10
1.260606387e-08
1.381081017e-08
-3.697216103e-12
6.746639001e-11
-1.391963283e-11
2.078285842e-10
-2.987785313e-11
3.537449445e-10
-5.088724957e-11
5.061692427e-10
-7.638646085e-11
6.672770242e-10
-1.059159508e-10
8.401645239e-10
-1.390699587e-10
1.028268542e-09
-1.754435667e-10
1.234839693e-09
-2.145906271e-10
1.462616994e-09