4.545454545e-05 	8.189430892e-05 	1.300501151e-05 	5.44700975e-12
6.060606061e-05 	0.0002117369186 	3.362417885e-05 	1.408292087e-11
7.575757576e-05 	0.0003415795248 	5.424334677e-05 	2.271883381e-11
9.090909091e-05 	0.0004941933139 	7.280478632e-05 	2.732349678e-11
0.0001060606061 	0.0006723078258 	8.906268126e-05 	2.741560474e-11
0.0001212121212 	0.0008504223287 	0.0001053205756 	2.750771191e-11
0.0001363636364 	0.001045592469 	0.0001200356822 	2.764825233e-11
0.0001515151515 	0.001278241257 	0.0001313618006 	2.78956181e-11
0.0001666666667 	0.001510890034 	0.0001426879181 	2.814298339e-11
0.0001818181818 	0.001753200797 	0.0001532717363 	2.844063554e-11
0.000196969697 	0.002048681576 	0.0001597729381 	2.901386356e-11
0.0002121212121 	0.002344162344 	0.0001662741385 	2.958709128e-11
0.0002272727273 	0.002639643104 	0.0001727753379 	3.01603188e-11
0.0002424242424 	0.003008347556 	0.0001751790423 	3.036306664e-11
0.0002575757576 	0.003377434809 	0.0001775616136 	3.056379105e-11
0.0002727272727 	0.003746522049 	0.000179944184 	3.076451547e-11
0.0002878787879 	0.004188860538 	0.0001796115793 	3.07899006e-11
0.000303030303 	0.004645587371 	0.0001787459277 	3.078053914e-11
0.0003181818182 	0.005102314178 	0.0001778802732 	3.077117835e-11
0.0003333333333 	0.005630224656 	0.0001755374737 	3.003116589e-11
0.0003484848485 	0.006192120797 	0.0001724897048 	2.894254874e-11
0.0003636363636 	0.006754016898 	0.0001694419315 	2.785393177e-11
0.0003787878788 	0.007381061325 	0.0001658671472 	2.712196635e-11
0.0003939393939 	0.008068757343 	0.0001618019936 	2.672255064e-11
0.0004090909091 	0.008756453306 	0.0001577368352 	2.632313402e-11
0.0004242424242 	0.009497490735 	0.0001537024041 	2.698878766e-11
0.0004393939394 	0.0103338129 	0.0001497231267 	2.955707414e-11
0.0004545454545 	0.01117013503 	0.0001457438472 	3.212536004e-11
0.0004696969697 	0.01204095588 	0.0001419617132 	3.438722145e-11
0.0004848484848 	0.01304984007 	0.0001389688439 	3.542185816e-11
0.0005 	0.01405872423 	0.0001359759711 	3.645649469e-11
0.0005151515152 	0.01507566208 	0.0001330487675 	3.741604532e-11
0.0005303030303 	0.01628124498 	0.0001316604932 	3.662264571e-11
0.0005454545455 	0.01748682783 	0.0001302722175 	3.582924585e-11
0.0005606060606 	0.01869241064 	0.0001288839403 	3.503584573e-11
0.0005757575758 	0.02009245746 	0.0001291979538 	3.527557198e-11
0.0005909090909 	0.02151852905 	0.0001297397844 	3.56532373e-11
0.0006060606061 	0.02294460057 	0.0001302816107 	3.603090261e-11
0.0006212121212 	0.02454686526 	0.000132269385 	3.573239125e-11
0.0006363636364 	0.02621663713 	0.0001348111417 	3.517474726e-11
0.0006515151515 	0.02788640888 	0.000137352893 	3.46171034e-11
0.0006666666667 	0.02970634953 	0.0001409472724 	3.39749383e-11
0.0006818181818 	0.03164237157 	0.0001453552828 	3.326788811e-11
0.000696969697 	0.03357839349 	0.0001497632871 	3.256083693e-11
0.0007121212121 	0.03563108883 	0.0001548091282 	3.224915703e-11
0.0007272727273 	0.03785516688 	0.0001607917816 	3.251826309e-11
0.0007424242424 	0.0400792448 	0.0001667744323 	3.27873687e-11
0.0007575757576 	0.04237934829 	0.00017304219 	3.286936746e-11
0.0007727272727 	0.04491239788 	0.000180183296 	3.237772984e-11
0.0007878787879 	0.04744544738 	0.0001873243982 	3.188609184e-11
0.000803030303 	0.05000712872 	0.0001945215911 	3.142815943e-11
0.0008181818182 	0.0528689665 	0.0002023060259 	3.132307611e-11
0.0008333333333 	0.0557308042 	0.0002100904593 	3.121799271e-11
0.0008484848485 	0.05859264183 	0.0002178748913 	3.111290923e-11
0.0008636363636 	0.0617767775 	0.0002257092981 	3.289795358e-11
0.0008787878788 	0.06498587936 	0.0002335474886 	3.482902261e-11
0.0008939393939 	0.0681949811 	0.0002413856758 	3.676009236e-11
0.0009090909091 	0.07168416279 	0.00024877594 	3.641315641e-11
0.0009242424242 	0.07525741664 	0.000256031634 	3.538252514e-11
0.0009393939394 	0.0788306703 	0.0002632873241 	3.435189447e-11
0.0009545454545 	0.08263530708 	0.0002697911442 	3.133518176e-11
0.0009696969697 	0.08658778295 	0.0002758144099 	2.705078456e-11
0.0009848484848 	0.09054025861 	0.0002818376714 	2.276638465e-11
0.001 	0.09466972112 	0.0002870229267 	2.032657537e-11
0.001015151515 	0.09901447677 	0.0002911885762 	2.013131117e-11
0.00103030303 	0.1033592321 	0.0002953542239 	1.993604508e-11
0.001045454545 	0.1078218004 	0.0002988143146 	2.021742034e-11
0.001060606061 	0.1125697517 	0.000300564949 	2.165182527e-11
0.001075757576 	0.1173177028 	0.0003023155814 	2.308622875e-11
0.001090909091 	0.1221205381 	0.0003036853855 	2.418398531e-11
0.001106060606 	0.1272804686 	0.0003025766062 	2.308767435e-11
0.001121212121 	0.1324403989 	0.0003014678263 	2.199136355e-11
0.001136363636 	0.1376003292 	0.000300359046 	2.089505286e-11
0.001151515152 	0.1431684983 	0.0002961827602 	1.915321741e-11
0.001166666667 	0.1487474599 	0.0002919252707 	1.739378103e-11
0.001181818182 	0.1543264214 	0.0002876677802 	1.563434635e-11
0.001196969697 	0.160252738 	0.000280767668 	1.064104384e-11
0.001212121212 	0.1662577628 	0.0002732686364 	4.915131137e-12
0.001227272727 	0.1722627874 	0.0002657696038 	-8.10779828e-13
0.001242424242 	0.1785562899 	0.0002562652299 	-4.37262567e-12
0.001257575758 	0.1850008738 	0.0002457104908 	-6.80051587e-12
0.001272727273 	0.1914454573 	0.0002351557519 	-9.228405823e-12
0.001287878788 	0.1981306671 	0.0002233570474 	-8.322119013e-12
0.001303030303 	0.2050591071 	0.0002103007893 	-4.045646039e-12
0.001318181818 	0.2119875468 	0.000197244531 	2.308268786e-13
0.001333333333 	0.219136112 	0.000183435926 	3.301424698e-12
0.001348484848 	0.2267151831 	0.0001681557479 	4.015221824e-12
0.001363636364 	0.2342942537 	0.0001528755703 	4.729017208e-12
0.001378787879 	0.2421054476 	0.0001367472361 	4.462829347e-12
0.001393939394 	0.2509788382 	0.000116737248 	-2.879619286e-13
0.001409090909 	0.2598522286 	9.672726024e-05 	-5.038753569e-12
0.001424242424 	0.2688056806 	7.662739758e-05 	-9.63032354e-12
0.001439393939 	0.2816121436 	5.22128439e-05 	-6.561988032e-12
0.001454545455 	0.2944186059 	2.7798291e-05 	-3.493653594e-12
0.00146969697 	0.3072250674 	3.383739083e-06 	-4.253205117e-13
