# vtk DataFile Version 2.0
track0
ASCII
DATASET POLYDATA
POINTS 12278 float
-0.0205 0.001 1e-05
-0.02052 0.000999216 1e-05
-0.02054 0.000998592 1e-05
-0.02056 0.000998126 1e-05
-0.02058 0.000997818 1e-05
-0.0206 0.000997665 1e-05
-0.0205 0.00367778 1e-05
-0.02052 0.00367703 1e-05
-0.02054 0.00367643 1e-05
-0.02056 0.00367599 1e-05
-0.02058 0.00367569 1e-05
-0.0206 0.00367554 1e-05
-0.0205 0.00635556 1e-05
-0.02052 0.00635527 1e-05
-0.02054 0.00635505 1e-05
-0.02056 0.00635488 1e-05
-0.02058 0.00635476 1e-05
-0.0206 0.00635471 1e-05
-0.0205 0.00903333 1e-05
-0.02052 0.00903311 1e-05
-0.02054 0.00903293 1e-05
-0.02056 0.0090328 1e-05
-0.02058 0.00903271 1e-05
-0.0206 0.00903266 1e-05
-0.0205 0.0117111 1e-05
-0.02052 0.0117111 1e-05
-0.02054 0.011711 1e-05
-0.02056 0.011711 1e-05
-0.02058 0.011711 1e-05
-0.0206 0.011711 1e-05
-0.0205 0.0143889 1e-05
-0.02052 0.014389 1e-05
-0.02054 0.014389 1e-05
-0.02056 0.0143891 1e-05
-0.02058 0.0143891 1e-05
-0.0206 0.0143891 1e-05
-0.0205 0.0170667 1e-05
-0.02052 0.017067 1e-05
-0.02054 0.0170672 1e-05
-0.02056 0.0170674 1e-05
-0.02058 0.0170675 1e-05
-0.0206 0.0170676 1e-05
-0.0205 0.0197444 1e-05
-0.02052 0.019745 1e-05
-0.02054 0.0197454 1e-05
-0.02056 0.0197457 1e-05
-0.02058 0.0197459 1e-05
-0.0206 0.019746 1e-05
-0.0205 0.0224222 1e-05
-0.02052 0.022423 1e-05
-0.02054 0.0224236 1e-05
-0.02056 0.0224241 1e-05
-0.02058 0.0224244 1e-05
-0.0206 0.0224245 1e-05
-0.0205 0.0251 1e-05
-0.02052 0.0251003 1e-05
-0.02054 0.0251005 1e-05
-0.02056 0.0251007 1e-05
-0.02058 0.0251008 1e-05
-0.0206 0.0251008 1e-05
-0.0205 0.001 1e-05
-0.0203632 0.00100536 1e-05
-0.0202266 0.00101331 1e-05
-0.0200901 0.00102296 1e-05
-0.0200427 0.00102682 1e-05
-0.0198376 0.00104418 1e-05
-0.0196338 0.00107322 1e-05
-0.0194327 0.00111734 1e-05
-0.0192368 0.00118024 1e-05
-0.0190172 0.00124951 1e-05
-0.0189002 0.00128348 1e-05
-0.0187827 0.00131598 1e-05
-0.0186649 0.001347 1e-05
-0.0185469 0.001377 1e-05
-0.0183807 0.00141936 1e-05
-0.0182041 0.00146458 1e-05
-0.0180267 0.00150692 1e-05
-0.0178487 0.0015464 1e-05
-0.0176703 0.00158389 1e-05
-0.0174976 0.00161991 1e-05
-0.0172846 0.00166394 1e-05
-0.0170715 0.00170741 1e-05
-0.0168583 0.00175029 1e-05
-0.0166449 0.00179219 1e-05
-0.0163945 0.00184007 1e-05
-0.0163234 0.00185324 1e-05
-0.0162522 0.00186629 1e-05
-0.016181 0.00187921 1e-05
-0.0161097 0.00189201 1e-05
-0.0160387 0.0019046 1e-05
-0.0157586 0.0019535 1e-05
-0.0154779 0.00199931 1e-05
-0.0151968 0.00204225 1e-05
-0.0149154 0.00208283 1e-05
-0.0146381 0.00212134 1e-05
-0.0143838 0.00215527 1e-05
-0.0141293 0.00218766 1e-05
-0.0138747 0.00221855 1e-05
-0.0136198 0.00224797 1e-05
-0.0132934 0.00228369 1e-05
-0.0132791 0.00228515 1e-05
-0.0132648 0.0022866 1e-05
-0.0132504 0.00228805 1e-05
-0.0132361 0.0022895 1e-05
-0.0132214 0.00229098 1e-05
-0.0129776 0.00231543 1e-05
-0.0127337 0.00233865 1e-05
-0.0124897 0.00236061 1e-05
-0.0122456 0.00238129 1e-05
-0.0120025 0.00240058 1e-05
-0.0117547 0.00241909 1e-05
-0.0115067 0.00243627 1e-05
-0.0112587 0.00245231 1e-05
-0.0110106 0.00246734 1e-05
-0.0107632 0.00248136 1e-05
-0.0105252 0.00249391 1e-05
-0.0102872 0.00250547 1e-05
-0.0100491 0.00251602 1e-05
-0.00981105 0.00252575 1e-05
-0.00957337 0.00253471 1e-05
-0.00934491 0.00254261 1e-05
-0.00911643 0.00254974 1e-05
-0.00888792 0.0025561 1e-05
-0.0086594 0.00256171 1e-05
-0.00843108 0.00256668 1e-05
-0.00821175 0.00257084 1e-05
-0.00799241 0.00257439 1e-05
-0.00777306 0.00257731 1e-05
-0.0075537 0.00257952 1e-05
-0.00733443 0.00258114 1e-05
-0.00712387 0.00258212 1e-05
-0.0069133 0.00258255 1e-05
-0.00670273 0.00258243 1e-05
-0.00649216 0.00258162 1e-05
-0.0062816 0.00258017 1e-05
-0.00607944 0.00257819 1e-05
-0.0058773 0.00257565 1e-05
-0.00567516 0.00257256 1e-05
-0.00547303 0.00256874 1e-05
-0.00527083 0.00256419 1e-05
-0.00507675 0.00255912 1e-05
-0.00488269 0.00255342 1e-05
-0.00468865 0.0025471 1e-05
-0.00449464 0.00253997 1e-05
-0.00430044 0.0025319 1e-05
-0.00411412 0.00252328 1e-05
-0.00392784 0.00251388 1e-05
-0.00374159 0.00250368 1e-05
-0.0035554 0.00249254 1e-05
-0.00336883 0.00248015 1e-05
-0.00318995 0.00246711 1e-05
-0.00301115 0.00245299 1e-05
-0.00283245 0.00243774 1e-05
-0.00265386 0.0024212 1e-05
-0.00247443 0.00240313 1e-05
-0.0023027 0.00238425 1e-05
-0.00213114 0.00236383 1e-05
-0.00195982 0.00234153 1e-05
-0.00178875 0.00231737 1e-05
-0.00161577 0.00229104 1e-05
-0.00161569 0.00229103 1e-05
-0.00161561 0.00229102 1e-05
-0.00161553 0.002291 1e-05
-0.00161545 0.00229099 1e-05
-0.00161537 0.00229098 1e-05
-0.00145058 0.00226407 1e-05
-0.00128619 0.00223481 1e-05
-0.00112223 0.00220325 1e-05
-0.000958712 0.00216946 1e-05
-0.000791418 0.00213235 1e-05
-0.000633135 0.00209424 1e-05
-0.000475556 0.00205331 1e-05
-0.000318719 0.00200962 1e-05
-0.000162835 0.00196265 1e-05
0 0.00190949 1e-05
3.73278e-05 0.0018963 1e-05
7.45556e-05 0.00188282 1e-05
0.000111685 0.00186908 1e-05
0.000148717 0.00185508 1e-05
0.000179019 0.00184337 1e-05
0.000248892 0.00181593 1e-05
0.000318355 0.00178747 1e-05
0.000387392 0.00175798 1e-05
0.00045599 0.00172749 1e-05
0.000528387 0.0016941 1e-05
0.000634886 0.00164312 1e-05
0.000740278 0.00158989 1e-05
0.00084451 0.00153442 1e-05
0.00094762 0.0014769 1e-05
0.00101982 0.00143468 1e-05
0.00102803 0.00142972 1e-05
0.00103623 0.00142474 1e-05
0.00104443 0.00141975 1e-05
0.00105261 0.00141474 1e-05
0.00106088 0.00140966 1e-05
0.00116821 0.00134347 1e-05
0.00127404 0.00127491 1e-05
0.00137827 0.00120395 1e-05
0.00148099 0.00113082 1e-05
0.00159662 0.00104511 1e-05
0.0015968 0.00104497 1e-05
0.00159698 0.00104483 1e-05
0.00159716 0.00104469 1e-05
0.00159734 0.00104455 1e-05
0.00159752 0.00104441 1e-05
0.00169216 0.000970849 1e-05
0.00178541 0.000895527 1e-05
0.00187717 0.000818406 1e-05
0.00196752 0.000739632 1e-05
0.0020379 0.000676366 1e-05
0.00205799 0.000657858 1e-05
0.00207799 0.000639261 1e-05
0.00209791 0.000620573 1e-05
0.00211777 0.000601823 1e-05
0.00213833 0.000582288 1e-05
0.00219144 0.000531489 1e-05
0.00224405 0.000480174 1e-05
0.00229615 0.000428334 1e-05
0.00234772 0.000375964 1e-05
0.002394 0.000328254 1e-05
0.00245187 0.00026777 1e-05
0.0025091 0.000206686 1e-05
0.0025657 0.000145018 1e-05
0.0026218 8.28831e-05 1e-05
0.00268334 1.35297e-05 1e-05
0.00268569 1.08237e-05 1e-05
0.00268804 8.11681e-06 1e-05
0.0026904 5.40889e-06 1e-05
0.00269275 2.69996e-06 1e-05
0.00269509 0 1e-05
0.00275899 -7.37367e-05 1e-05
0.00282226 -0.000148005 1e-05
0.0028849 -0.000222813 1e-05
0.00294688 -0.000298172 1e-05
0.00300395 -0.000368654 1e-05
0.00304968 -0.000425963 1e-05
0.00309509 -0.000483518 1e-05
0.0031402 -0.000541315 1e-05
0.00318506 -0.000599307 1e-05
0.00323259 -0.000661317 1e-05
0.00325061 -0.000685072 1e-05
0.00326858 -0.000708867 1e-05
0.0032865 -0.000732702 1e-05
0.00330437 -0.000756577 1e-05
0.00332189 -0.000780089 1e-05
0.00339003 -0.000871876 1e-05
0.00345757 -0.000964106 1e-05
0.00352449 -0.00105679 1e-05
0.00359086 -0.00114986 1e-05
0.00365373 -0.00123896 1e-05
0.0036802 -0.00127688 1e-05
0.0037066 -0.00131486 1e-05
0.00373293 -0.00135289 1e-05
0.0037592 -0.00139095 1e-05
0.00378611 -0.00143005 1e-05
0.00383007 -0.00149414 1e-05
0.00387381 -0.00155837 1e-05
0.00391734 -0.00162274 1e-05
0.00396064 -0.00168728 1e-05
0.00400277 -0.00175043 1e-05
0.004071 -0.0018533 1e-05
0.00413882 -0.00195644 1e-05
0.00420621 -0.00205986 1e-05
0.00427331 -0.00216347 1e-05
0.00434393 -0.00227318 1e-05
0.00434996 -0.00228261 1e-05
0.00435598 -0.00229203 1e-05
0.00436199 -0.00230146 1e-05
0.00436801 -0.00231089 1e-05
0.004374 -0.0023203 1e-05
0.00445485 -0.00244725 1e-05
0.00453525 -0.00257448 1e-05
0.00461525 -0.00270197 1e-05
0.0046949 -0.00282967 1e-05
0.00477277 -0.00295497 1e-05
0.00479944 -0.00299803 1e-05
0.00482607 -0.00304109 1e-05
0.00485268 -0.00308418 1e-05
0.00487929 -0.00312726 1e-05
0.00490609 -0.00317067 1e-05
0.00496671 -0.00326886 1e-05
0.00502718 -0.00336715 1e-05
0.0050875 -0.00346552 1e-05
0.00514768 -0.00356398 1e-05
0.00520732 -0.00366161 1e-05
0.00526038 -0.00374854 1e-05
0.0053134 -0.00383549 1e-05
0.00536638 -0.00392247 1e-05
0.00541938 -0.00400943 1e-05
0.00547262 -0.00409666 1e-05
0.00551558 -0.00416695 1e-05
0.00555851 -0.00423726 1e-05
0.00560141 -0.00430759 1e-05
0.00564429 -0.00437794 1e-05
0.0056871 -0.00444811 1e-05
0.00575839 -0.00456487 1e-05
0.00582973 -0.0046816 1e-05
0.00590111 -0.00479829 1e-05
0.00597263 -0.00491491 1e-05
0.00604356 -0.00503009 1e-05
0.00607981 -0.00508872 1e-05
0.00611607 -0.00514735 1e-05
0.00615233 -0.00520597 1e-05
0.00618862 -0.00526458 1e-05
0.00622502 -0.00532326 1e-05
0.0063038 -0.00545002 1e-05
0.00638277 -0.00557667 1e-05
0.00646194 -0.0057032 1e-05
0.00654138 -0.00582955 1e-05
0.00661893 -0.00595209 1e-05
0.00666283 -0.00602101 1e-05
0.00670679 -0.0060899 1e-05
0.0067508 -0.00615875 1e-05
0.00679489 -0.00622755 1e-05
0.00683936 -0.00629671 1e-05
0.00691125 -0.00640811 1e-05
0.00698338 -0.00651934 1e-05
0.00705578 -0.00663041 1e-05
0.00712846 -0.00674128 1e-05
0.00719878 -0.00684773 1e-05
0.00726948 -0.006954 1e-05
0.0073404 -0.00706011 1e-05
0.00741155 -0.00716607 1e-05
0.007483 -0.00727182 1e-05
0.00755599 -0.00737909 1e-05
0.00760142 -0.00744537 1e-05
0.00764698 -0.00751157 1e-05
0.00769266 -0.00757768 1e-05
0.00773847 -0.0076437 1e-05
0.00778313 -0.00770771 1e-05
0.00790091 -0.00787567 1e-05
0.00801946 -0.00804309 1e-05
0.00813878 -0.00820996 1e-05
0.0082591 -0.00837611 1e-05
0.00837203 -0.00853001 1e-05
0.00837975 -0.00854039 1e-05
0.00838747 -0.00855076 1e-05
0.0083952 -0.00856113 1e-05
0.00840292 -0.0085715 1e-05
0.00841068 -0.00858189 1e-05
0.00852164 -0.00873051 1e-05
0.00863343 -0.0088785 1e-05
0.00874606 -0.00902586 1e-05
0.00885956 -0.00917255 1e-05
0.00896551 -0.00930763 1e-05
0.00903014 -0.00938897 1e-05
0.00909504 -0.0094701 1e-05
0.0091602 -0.00955101 1e-05
0.00922567 -0.00963168 1e-05
0.00929331 -0.00971439 1e-05
0.00934736 -0.00977996 1e-05
0.00940162 -0.00984537 1e-05
0.00945607 -0.00991062 1e-05
0.00951071 -0.00997571 1e-05
0.0095636 -0.0100383 1e-05
0.00968415 -0.01018 1e-05
[...]
POINT_DATA 12278
 FIELD attributes 1
U 3 12278 float
9.72339 	0.381311 	0 9.77871 	0.305049 	0 9.83405 	0.228765 	0 9.8894 	0.152465 	0 9.94476 	0.0761532 	0 10 	0 	0
10.0671 	0.375483 	0 10.0537 	0.300387 	0 10.0403 	0.225271 	0 10.0268 	0.150141 	0 10.0134 	0.0750009 	0 10 	0 	0
10.0364 	0.141572 	0 10.0291 	0.113304 	0 10.0218 	0.085089 	0 10.0145 	0.0569263 	0 10.0071 	0.0288164 	0 10 	0 	0
10.0137 	0.111519 	0 10.011 	0.0892151 	0 10.0082 	0.0669108 	0 10.0055 	0.0446062 	0 10.0027 	0.0223012 	0 10 	0 	0
10.0097 	0.0196534 	0 10.0078 	0.0157227 	0 10.0058 	0.011792 	0 10.0039 	0.00786136 	0 10.0019 	0.00393067 	0 10 	0 	0
10.0102 	-0.0372875 	0 10.0082 	-0.02983 	0 10.0061 	-0.0223725 	0 10.0041 	-0.0149149 	0 10.002 	-0.0074574 	0 10 	0 	0
10.0174 	-0.148996 	0 10.0139 	-0.119197 	0 10.0105 	-0.0893967 	0 10.007 	-0.0595953 	0 10.0035 	-0.0297932 	0 10 	0 	0
10.0362 	-0.265901 	0 10.029 	-0.212721 	0 10.0217 	-0.159534 	0 10.0145 	-0.106342 	0 10.0072 	-0.053146 	0 10 	0 	0
10.0563 	-0.387167 	0 10.045 	-0.309734 	0 10.0338 	-0.23228 	0 10.0225 	-0.15481 	0 10.0112 	-0.0773281 	0 10 	0 	0
8.30133 	-0.114495 	0 8.4287 	-0.091596 	0 8.55659 	-0.0686962 	0 8.68498 	-0.0457957 	0 8.81385 	-0.0228949 	0 8.94315 	0 	0
9.72339 	0.381311 	0 9.5415 	0.555241 	0 9.39671 	0.663651 	0 9.26203 	0.754272 	0 9.2183 	0.780385 	0 8.95344 	1.27614 	0 8.70578 	1.91036 	0 8.48173 	2.72184 	0 8.46724 	2.67123 	0 8.47252 	2.45986 	0 8.50117 	2.35314 	0 8.52498 	2.2443 	0 8.51221 	2.16311 	0 8.42487 	2.14738 	0 8.30214 	2.12559 	0 8.30117 	1.9821 	0 8.28715 	1.83798 	0 8.21181 	1.72569 	0 8.035 	1.67507 	0 7.86306 	1.62575 	0 7.68323 	1.56759 	0 7.50177 	1.50875 	0 7.42793 	1.45839 	0 7.36148 	1.40771 	0 7.27865 	1.34671 	0 7.22249 	1.32376 	0 7.16614 	1.3007 	0 7.10958 	1.27753 	0 7.07928 	1.2544 	0 7.05291 	1.23121 	0 6.97394 	1.13838 	0 6.88841 	1.05226 	0 6.79883 	0.980329 	0 6.71191 	0.932083 	0 6.6228 	0.883658 	0 6.55089 	0.833774 	0 6.49228 	0.787587 	0 6.44246 	0.743855 	0 6.3887 	0.69909 	0 6.31694 	0.642265 	0 6.31477 	0.64017 	0 6.3132 	0.638346 	0 6.31172 	0.636559 	0 6.31023 	0.63477 	0 6.30868 	0.632932 	0 6.27132 	0.597061 	0 6.23151 	0.560862 	0 6.18922 	0.524331 	0 6.1444 	0.487462 	0 6.10943 	0.456251 	0 6.07602 	0.420968 	0 6.04571 	0.390994 	0 6.01701 	0.364549 	0 5.99443 	0.339599 	0 5.97316 	0.315194 	0 5.95246 	0.28906 	0 5.92972 	0.262717 	0 5.91348 	0.241655 	0 5.9034 	0.222651 	0 5.89182 	0.203584 	0 5.87917 	0.183516 	0 5.86498 	0.163349 	0 5.85627 	0.143785 	0 5.85337 	0.127396 	0 5.8492 	0.11098 	0 5.84297 	0.0943447 	0 5.8355 	0.0776681 	0 5.83342 	0.0589654 	0 5.83631 	0.0430909 	0 5.83801 	0.027217 	0 5.83718 	0.0119188 	0 5.83535 	-0.00344819 	0 5.83922 	-0.0225502 	0 5.84733 	-0.0400424 	0 5.85426 	-0.0574805 	0 5.85862 	-0.073548 	0 5.86186 	-0.0895895 	0 5.87122 	-0.110978 	0 5.88469 	-0.132517 	0 5.89666 	-0.153985 	0 5.90652 	-0.173352 	0 5.91509 	-0.192649 	0 5.92941 	-0.218109 	0 5.94829 	-0.247066 	0 5.96529 	-0.275884 	0 5.98123 	-0.302117 	0 5.99553 	-0.328201 	0 6.01457 	-0.359815 	0 6.03867 	-0.400981 	0 6.06028 	-0.441903 	0 6.08262 	-0.480369 	0 6.10482 	-0.520993 	0 6.13013 	-0.567652 	0 6.15461 	-0.619724 	0 6.17874 	-0.679537 	0 6.20612 	-0.738535 	0 6.23747 	-0.811929 	0 6.26494 	-0.884788 	0 6.28859 	-0.957108 	0 6.30871 	-1.02982 	0 6.30872 	-1.02986 	0 6.30873 	-1.02991 	0 6.30875 	-1.02997 	0 6.30876 	-1.03002 	0 6.30878 	-1.03008 	0 6.33257 	-1.12727 	0 6.35112 	-1.22236 	0 6.36453 	-1.31538 	0 6.37529 	-1.41408 	0 6.38858 	-1.53829 	0 6.40638 	-1.66404 	0 6.41794 	-1.78769 	0 6.40581 	-1.93021 	2.62111e-20 6.36945 	-2.07918 	5.37333e-20 6.3193 	-2.23396 	8.12358e-20 6.31109 	-2.2844 	2.34041e-20 6.29891 	-2.33172 	5.85896e-21 6.28256 	-2.37573 	3.12808e-20 6.26564 	-2.41948 	5.73226e-20 6.2513 	-2.45517 	7.91953e-20 6.22491 	-2.55104 	1.78974e-19 6.19657 	-2.64635 	2.82915e-19 6.16628 	-2.74108 	3.90992e-19 6.12012 	-2.82224 	2.74353e-19 6.06357 	-2.90259 	6.24927e-20 5.98361 	-3.02226 	4.92765e-20 5.89844 	-3.13895 	3.61897e-20 5.80157 	-3.23679 	8.57439e-21 5.7003 	-3.3327 	-1.80412e-20 5.62544 	-3.39922 	-3.6167e-20 5.61629 	-3.40853 	-3.5959e-20 5.6071 	-3.41783 	-3.57359e-20 5.59784 	-3.42648 	-3.68874e-20 5.58845 	-3.43344 	-4.1697e-20 5.57891 	-3.44047 	-4.65526e-20 5.45902 	-3.53668 	-2.8284e-20 5.3338 	-3.63094 	-9.44266e-21 5.20776 	-3.70788 	1.28843e-22 5.08153 	-3.76678 	-1.78982e-22 4.93259 	-3.83206 	7.82131e-23 4.93232 	-3.83221 	4.47574e-23 4.93205 	-3.83235 	1.13013e-23 4.93181 	-3.83246 	1.984e-23 4.93158 	-3.83254 	4.98006e-23 4.93134 	-3.83262 	7.97714e-23 4.80564 	-3.88195 	1.13313e-21 4.67585 	-3.92969 	2.49084e-21 4.54894 	-3.96618 	4.21863e-21 4.43132 	-3.98328 	6.34355e-21 4.33601 	-3.99564 	8.21412e-21 4.30566 	-4.00331 	1.3363e-20 4.27509 	-4.0109 	1.85499e-20 4.24977 	-4.01261 	9.22553e-21 4.22458 	-4.01397 	-8.28488e-22 4.19828 	-4.01533 	-1.12528e-20 4.12448 	-4.02263 	-6.36143e-20 4.0495 	-4.02942 	-1.15608e-19 3.97349 	-4.03553 	-1.6579e-19 3.90933 	-4.02999 	-1.0156e-19 3.85053 	-4.02461 	-4.30493e-20 3.77294 	-4.02676 	4.18189e-21 3.69545 	-4.02601 	4.20062e-20 3.62355 	-4.01389 	3.42071e-20 3.55057 	-4.0013 	2.66789e-20 3.46851 	-3.98681 	1.86504e-20 3.46519 	-3.98639 	1.92732e-20 3.46186 	-3.98597 	1.98961e-20 3.45853 	-3.98556 	2.05191e-20 3.4554 	-3.98484 	2.1042e-20 3.45235 	-3.984 	2.15236e-20 3.38421 	-3.97197 	1.41275e-20 3.31402 	-3.95782 	7.41943e-21 3.24262 	-3.94296 	7.05985e-22 3.17083 	-3.9159 	6.16661e-21 3.10319 	-3.88913 	1.23498e-20 3.0611 	-3.87912 	3.4728e-20 3.01869 	-3.86772 	5.06317e-20 2.97707 	-3.84875 	2.3362e-20 2.93506 	-3.82955 	-3.85075e-21 2.88984 	-3.80885 	-3.27862e-20 2.87173 	-3.8023 	-3.88871e-20 2.85353 	-3.7957 	-4.49902e-20 2.83525 	-3.78904 	-5.10956e-20 2.81706 	-3.77998 	-5.72863e-20 2.79915 	-3.77047 	-6.33958e-20 2.74575 	-3.74941 	-1.07121e-19 2.69152 	-3.72785 	-1.50966e-19 2.63672 	-3.6972 	-1.46195e-19 2.5823 	-3.65982 	-8.819e-20 2.52978 	-3.62371 	-3.27121e-20 2.51284 	-3.61478 	2.07068e-21 2.49587 	-3.60565 	3.52505e-20 2.47999 	-3.59325 	2.99945e-20 2.46404 	-3.58081 	2.47736e-20 2.44761 	-3.56799 	1.94526e-20 2.41708 	-3.54891 	5.65578e-20 2.38629 	-3.52963 	9.35837e-20 2.35525 	-3.51016 	1.30528e-19 2.32526 	-3.48566 	1.03445e-19 2.29586 	-3.46122 	7.23024e-20 2.25893 	-3.43552 	4.24483e-20 2.22154 	-3.4095 	1.2562e-20 2.18697 	-3.37664 	-2.90661e-21 2.15215 	-3.34343 	-1.81138e-20 2.11502 	-3.30809 	-3.42206e-20 2.11132 	-3.30524 	-3.18013e-20 2.10761 	-3.30238 	-2.93848e-20 2.1039 	-3.29952 	-2.6971e-20 2.10041 	-3.2961 	-3.40098e-20 2.09693 	-3.29266 	-4.13448e-20 2.06021 	-3.26037 	-1.64544e-19 2.02449 	-3.22604 	-2.56532e-19 1.98943 	-3.18993 	-2.99649e-19 1.9572 	-3.14904 	-1.93315e-19 1.92544 	-3.10881 	-8.89831e-20 1.91683 	-3.09913 	-7.78887e-20 1.9082 	-3.08942 	-6.679e-20 1.90087 	-3.07858 	-5.65155e-20 1.89383 	-3.06746 	-4.64318e-20 1.88673 	-3.05627 	-3.62723e-20 1.86481 	-3.03089 	-1.17372e-20 1.84277 	-3.00541 	1.28193e-20 1.82118 	-2.97925 	2.99915e-20 1.80215 	-2.95028 	1.21591e-20 1.78327 	-2.92154 	-5.50982e-21 1.76987 	-2.90258 	-2.11297e-20 1.75645 	-2.88359 	-3.67379e-20 1.74521 	-2.86329 	-1.81051e-20 1.73491 	-2.84249 	1.47296e-20 1.72461 	-2.82164 	4.76707e-20 1.71228 	-2.80445 	1.21715e-20 1.69993 	-2.78724 	-2.32774e-20 1.68822 	-2.76955 	-3.48924e-20 1.67814 	-2.7507 	1.2979e-20 1.66811 	-2.73191 	6.07192e-20 1.65478 	-2.70771 	1.97485e-19 1.64148 	-2.68353 	3.34189e-19 1.63055 	-2.65858 	2.96386e-19 1.6214 	-2.63314 	1.33626e-19 1.61249 	-2.60811 	-2.78247e-20 1.60468 	-2.59475 	-5.73758e-20 1.59688 	-2.58139 	-8.69349e-20 1.58989 	-2.56769 	-8.97785e-20 1.58401 	-2.55353 	-5.6283e-20 1.57816 	-2.53937 	-2.27608e-20 1.56817 	-2.51486 	-2.46228e-20 1.55829 	-2.49044 	-2.65247e-20 1.55035 	-2.46589 	-1.93318e-20 1.54491 	-2.4412 	-5.02071e-22 1.53985 	-2.41739 	1.77467e-20 1.5332 	-2.4029 	2.97205e-20 1.52658 	-2.38844 	4.16897e-20 1.52127 	-2.37375 	4.57205e-20 1.51692 	-2.35892 	4.40969e-20 1.5126 	-2.34405 	4.24434e-20 1.50736 	-2.32431 	2.55666e-20 1.50226 	-2.3047 	8.66421e-21 1.49822 	-2.28528 	-3.13067e-21 1.49687 	-2.26624 	-1.11906e-21 1.49577 	-2.24808 	8.13417e-22 1.48881 	-2.22756 	7.62594e-20 1.48194 	-2.20714 	1.51933e-19 1.47768 	-2.18688 	1.25791e-19 1.47434 	-2.16678 	6.78083e-20 1.47112 	-2.14649 	8.99842e-21 1.46992 	-2.13595 	-2.33577e-20 1.46878 	-2.12546 	-5.56702e-20 1.46789 	-2.11514 	-8.19947e-20 1.46942 	-2.10625 	-3.64812e-20 1.47098 	-2.09769 	7.88488e-21 1.46385 	-2.06748 	4.60807e-21 1.45703 	-2.03754 	1.31349e-21 1.45626 	-2.01097 	-2.34553e-20 1.45682 	-1.98527 	-5.1731e-20 1.45943 	-1.96231 	-7.48577e-20 1.45896 	-1.96034 	-6.85091e-20 1.45849 	-1.95838 	-6.22154e-20 1.45844 	-1.95662 	-6.69673e-20 1.45839 	-1.95487 	-7.17169e-20 1.45834 	-1.95311 	-7.64768e-20 1.45647 	-1.92819 	-2.09483e-19 1.45496 	-1.90357 	-3.41755e-19 1.45419 	-1.87952 	-4.46518e-19 1.45844 	-1.85931 	-1.91164e-19 1.46281 	-1.84095 	4.70804e-20 1.46066 	-1.82604 	1.11184e-19 1.45862 	-1.81123 	1.75068e-19 1.45954 	-1.79854 	1.42355e-19 1.46059 	-1.78596 	1.09742e-19 1.4618 	-1.77313 	7.63103e-20 1.46272 	-1.76357 	6.73878e-20 1.46373 	-1.75407 	5.84872e-20 1.46481 	-1.74464 	4.96089e-20 1.46742 	-1.73646 	5.16803e-20 1.47009 	-1.7287 	5.41954e-20 1.46957 	-1.70544 	2.95059e-20 1.46941 	-1.68246 	4.75447e-21 1.47232 	-1.6619 	2.02266e-20 1.47693 	-1.64244 	4.5312e-20 1.48287 	-1.62533 	6.85425e-20 1.48285 	-1.62126 	6.74228e-20 1.48293 	-1.61726 	6.75872e-20 1.48352 	-1.61363 	7.51535e-20 1.48413 	-1.61002 	8.27179e-20 1.48475 	-1.60637 	9.03707e-20 1.48746 	-1.59064 	1.39733e-19 1.49043 	-1.5751 	1.88974e-19 1.49367 	-1.55977 	2.38089e-19 1.49885 	-1.54628 	1.68531e-19 1.50426 	-1.5341 	8.22719e-20 1.50591 	-1.5146 	1.55651e-19 1.50841 	-1.49584 	2.03764e-19 1.51303 	-1.47901 	1.61903e-19 1.518 	-1.46245 	1.20573e-19 1.52371 	-1.44495 	7.67776e-20 1.52373 	-1.44489 	7.65499e-20 1.52375 	-1.44483 	7.63221e-20 1.52377 	-1.44476 	7.60943e-20 1.5238 	-1.44471 	7.63971e-20 1.52383 	-1.44465 	7.69323e-20 1.52823 	-1.42763 	1.26494e-19 1.53304 	-1.41088 	1.74536e-19 1.53822 	-1.3944 	2.22187e-19 1.54498 	-1.37968 	1.84234e-19 1.55208 	-1.36676 	1.17106e-19 1.55541 	-1.34915 	2.03132e-19 1.55962 	-1.33244 	2.39625e-19 1.56526 	-1.31729 	1.74883e-19 1.57124 	-1.30239 	1.10355e-19 1.5776 	-1.28885 	3.78251e-20 1.57783 	-1.28785 	3.7571e-20 1.5781 	-1.2869 	3.6733e-20 1.57842 	-1.286 	3.51587e-20 1.57875 	-1.28511 	3.3584e-20 1.57908 	-1.28422 	3.20001e-20 1.58429 	-1.27028 	-1.34874e-20 1.58981 	-1.25654 	-5.88959e-20 1.59562 	-1.24299 	-1.04223e-19 1.60232 	-1.23066 	-8.9342e-20 1.60937 	-1.21993 	-3.00688e-20 1.61382 	-1.20441 	-7.54534e-20 1.61858 	-1.1891 	-1.21251e-19 1.62465 	-1.17572 	-1.0385e-19 1.63195 	-1.16307 	-6.09348e-20 1.63998 	-1.15169 	3.29623e-22 1.64227 	-1.14485 	2.8825e-20 1.64488 	-1.13852 	2.83136e-20 1.64775 	-1.13255 	7.12977e-21 1.65068 	-1.12663 	-1.40032e-20 1.65381 	-1.12045 	-3.61391e-20 1.65745 	-1.11362 	-6.80402e-20 1.66118 	-1.10686 	-9.98298e-20 1.66499 	-1.10014 	-1.31507e-19 1.66903 	-1.09386 	-1.31069e-19 1.67327 	-1.08838 	-7.98808e-20 1.67841 	-1.07464 	-1.11917e-19 1.68444 	-1.06139 	-1.36101e-19 1.69177 	-1.04898 	-1.45545e-19 1.69996 	-1.03837 	-1.35216e-19 1.70804 	-1.0284 	-1.25227e-19 1.71382 	-1.0149 	-2.75527e-19 1.72008 	-1.0022 	-3.50388e-19 1.72696 	-0.990759 	-2.96317e-19 1.73411 	-0.979479 	-2.42752e-19 1.74241 	-0.969404 	-1.16066e-19 1.74451 	-0.96506 	-8.24903e-20 1.74676 	-0.961167 	-8.47084e-20 1.74908 	-0.95741 	-9.65924e-20 1.75142 	-0.953669 	-1.08428e-19 1.75389 	-0.949784 	-1.20724e-19 1.75875 	-0.942432 	-1.24331e-19 1.76373 	-0.935147 	-1.27911e-19 1.76883 	-0.927928 	-1.31464e-19 1.77407 	-0.920999 	-1.29655e-19 1.7794 	-0.915236 	-1.05278e-19 1.78545 	-0.903305 	-1.32888e-19 1.7925 	-0.891949 	-1.44771e-19 1.80044 	-0.881096 	-1.43544e-19 1.80876 	-0.872028 	-1.02971e-19 1.81704 	-0.863497 	-6.09464e-20 1.82365 	-0.851806 	-1.64905e-19 1.83052 	-0.840279 	-2.67028e-19 1.83769 	-0.830586 	-2.25712e-19 1.8459 	-0.821481 	-1.27943e-19 1.85458 	-0.813036 	4.38827e-23 1.8612 	-0.802477 	1.42189e-22 1.86798 	-0.793551 	1.07569e-22 1.87495 	-0.784768 	6.89216e-23 1.88211 	-0.776086 	2.98455e-23 1.89049 	-0.766313 	-1.51363e-23 1.89087 	-0.765899 	7.05976e-22 1.89124 	-0.765485 	1.42662e-21 1.89162 	-0.765071 	2.14679e-21 1.892 	-0.764658 	2.86649e-21 1.89237 	-0.764325 	4.20102e-22 1.89985 	-0.754871 	-2.52617e-20 1.90764 	-0.745588 	-4.71312e-20 1.91565 	-0.736416 	-6.88223e-20 1.92389 	-0.727365 	-8.98867e-20 1.93179 	-0.720378 	-3.12029e-20 1.93868 	-0.710421 	-2.11324e-20 1.94624 	-0.700905 	-1.3935e-20 1.95463 	-0.691922 	-1.04216e-20 1.9628 	-0.684649 	-1.59886e-20 1.97094 	-0.677781 	-2.24536e-20 1.97825 	-0.668074 	5.39372e-20 1.98578 	-0.658469 	1.30441e-19 1.99321 	-0.650381 	1.32358e-19 2.00152 	-0.643435 	6.57218e-20 2.00987 	-0.636692 	1.63273e-22 2.01757 	-0.627239 	9.71154e-23 2.0251 	-0.618862 	-1.11758e-20 2.03253 	-0.611321 	-3.10214e-20 2.04013 	-0.603859 	-5.08433e-20 2.0486 	-0.59722 	-6.38722e-20 2.05551 	-0.589513 	-1.06455e-19 2.06203 	-0.583001 	-1.10012e-19 2.0687 	-0.576547 	-1.13628e-19 2.0755 	-0.57015 	-1.17303e-19 2.08347 	-0.562867 	-1.21592e-19 2.08423 	-0.562203 	-1.22774e-19 2.08499 	-0.561539 	-1.23955e-19 2.08576 	-0.560876 	-1.25136e-19 2.08652 	-0.560214 	-1.26316e-19 2.08722 	-0.559676 	-1.22314e-19 2.09468 	-0.552376 	-9.43343e-20 2.10238 	-0.545218 	-6.50911e-20 2.11024 	-0.538129 	-3.58857e-20 2.11828 	-0.53111 	-6.71842e-21 2.12555 	-0.525619 	1.79224e-22 2.13271 	-0.517853 	6.74855e-20 2.14053 	-0.510871 	8.63817e-20 2.14854 	-0.503979 	1.0352e-19 2.1562 	-0.497901 	8.43368e-20 2.16321 	-0.492983 	1.49099e-20 2.1706 	-0.48546 	-5.50295e-20 2.17821 	-0.478086 	-1.18717e-19 2.18628 	-0.471445 	-1.34999e-19 2.19319 	-0.46658 	-6.72692e-20 2.20017 	-0.461799 	-7.25152e-23 2.20776 	-0.454518 	-3.96131e-23 2.21551 	-0.447297 	-6.88313e-24 2.22263 	-0.441432 	0 2.22947 	-0.436715 	0 2.23638 	-0.432071 	0 2.24413 	-0.425033 	0 2.25181 	-0.418314 	0 2.2583 	-0.413079 	0 2.265 	-0.408303 	-1.01529e-20 2.27181 	-0.403797 	-2.51745e-20 2.27969 	-0.396998 	-6.23896e-21 2.28661 	-0.391361 	-6.35038e-21 2.29311 	-0.38631 	-1.58163e-20 2.29973 	-0.381324 	-2.67463e-20 2.3064 	-0.376957 	-6.64873e-20 2.31411 	-0.370643 	-2.84722e-20 2.32045 	-0.365741 	-3.02616e-20 2.32692 	-0.360873 	-3.20229e-20 2.33351 	-0.356039 	-3.37562e-20 2.3401 	-0.351521 	-4.64711e-20 2.34635 	-0.346657 	-3.69107e-20 2.35196 	-0.34244 	-3.8362e-20 2.35767 	-0.338247 	-3.97918e-20 2.36346 	-0.334078 	-4.12003e-20 2.37032 	-0.329256 	-4.28144e-20 2.37084 	-0.328902 	-4.26967e-20 2.37136 	-0.328548 	-4.25791e-20 2.37188 	-0.328194 	-4.24617e-20 2.3724 	-0.32784 	-4.23444e-20 2.37285 	-0.327541 	-4.25211e-20 2.37902 	-0.322951 	-4.92039e-20 2.38528 	-0.318415 	-5.37532e-20 2.39165 	-0.313906 	-5.82255e-20 2.39814 	-0.309426 	-6.26214e-20 2.40377 	-0.305698 	-3.89671e-20 2.4101 	-0.300982 	-7.51579e-20 2.41626 	-0.296622 	-8.72912e-20 2.42253 	-0.292286 	-9.93656e-20 2.42891 	-0.287977 	-1.11382e-19 2.43355 	-0.284989 	-7.13071e-20 2.44012 	-0.280205 	-1.1858e-19 2.44616 	-0.276018 	-1.21107e-19 2.45231 	-0.271854 	-1.23587e-19 2.45819 	-0.267948 	-1.19e-19 2.46217 	-0.265384 	-7.5346e-20 2.46878 	-0.260767 	-1.17874e-19 2.47495 	-0.256562 	-1.28009e-19 2.48095 	-0.252567 	-1.22405e-19 2.48588 	-0.249305 	-9.47999e-20 2.48962 	-0.246846 	-4.3199e-20 2.4962 	-0.242432 	4.31574e-20 2.50259 	-0.238212 	1.03851e-19 2.50843 	-0.234382 	1.09347e-19 2.51241 	-0.231693 	5.0368e-20 2.5159 	-0.229337 	-2.66969e-20 2.52244 	-0.225123 	-1.75935e-20 2.52909 	-0.220928 	-8.50006e-21 2.5346 	-0.217343 	8.66906e-21 2.53778 	-0.215076 	2.59572e-20 2.54102 	-0.212821 	4.32202e-20 2.5475 	-0.208802 	-4.33231e-20 2.55408 	-0.2048 	-1.29879e-19 2.55907 	-0.201578 	-1.41244e-19 2.56199 	-0.199411 	-7.10831e-20 2.56496 	-0.197255 	-1.02089e-21 2.57136 	-0.193428 	-1.07264e-22 2.57786 	-0.189615 	7.85565e-22 2.58237 	-0.186729 	-1.56705e-20 2.58503 	-0.18466 	-4.94167e-20 2.58774 	-0.182601 	-8.31379e-20 2.59405 	-0.178961 	-4.76826e-20 2.60046 	-0.175333 	-1.2243e-20 2.60453 	-0.172757 	-8.54654e-21 2.60692 	-0.170784 	-2.593e-20 2.60936 	-0.16882 	-4.32977e-20 2.61558 	-0.165361 	-2.59873e-20 2.62188 	-0.161918 	-8.71012e-21 2.62549 	-0.15964 	-9.45458e-21 2.62768 	-0.157743 	-2.60534e-20 2.62985 	-0.155871 	-4.33786e-20 2.63596 	-0.152591 	-1.64885e-19 2.6416 	-0.149536 	-2.61788e-19 2.64505 	-0.147377 	-2.57097e-19 2.64732 	-0.145498 	-1.64746e-19 2.64922 	-0.143717 	-4.33591e-20 2.65521 	-0.14061 	-2.59813e-20 2.66022 	-0.137902 	-8.62103e-21 2.6635 	-0.135858 	8.70881e-21 2.66585 	-0.134011 	2.1308e-20 2.66749 	-0.132319 	3.02499e-20 2.67336 	-0.12938 	9.13178e-20 2.67775 	-0.126982 	1.18689e-19 2.68086 	-0.12505 	1.17016e-19 2.6833 	-0.123247 	9.21097e-20 2.68468 	-0.12164 	3.16739e-20 2.69042 	-0.118865 	2.32321e-20 2.69422 	-0.116743 	1.48064e-20 2.69717 	-0.114919 	6.38579e-21 2.6997 	-0.113169 	0 2.70082 	-0.111646 	0 2.70643 	-0.10903 	0 2.70968 	-0.107151 	1.47198e-20 2.71246 	-0.105432 	3.25502e-20 2.71508 	-0.103744 	5.03653e-20 2.71595 	-0.102303 	6.81071e-20 2.72142 	-0.0998395 	1.90103e-19 2.72414 	-0.0981769 	1.93615e-19 2.72676 	-0.0965584 	1.91088e-19 2.72942 	-0.0949431 	1.88611e-19 2.73009 	-0.0935756 	7.02139e-20 2.73523 	-0.0913125 	5.31999e-20 2.73764 	-0.0897887 	3.62391e-20 2.7401 	-0.0882677 	1.92701e-20 2.74259 	-0.0867495 	2.29293e-21 2.74327 	-0.0854333 	1.46985e-20 2.74796 	-0.0833871 	-4.34328e-24 2.75022 	-0.0819576 	-2.98891e-23 2.75252 	-0.0805304 	-5.54247e-23 2.75485 	-0.0791057 	-8.09502e-23 2.75554 	-0.0778452 	6.38914e-21 2.7598 	-0.075994 	-5.08067e-20 2.76191 	-0.0746551 	-4.95075e-20 2.76405 	-0.0733183 	-4.82358e-20 2.76623 	-0.0719836 	-4.69915e-20 2.76692 	-0.0707818 	-5.64373e-21 2.77079 	-0.0691061 	8.55964e-23 2.77274 	-0.0678543 	6.04903e-23 2.77474 	-0.0666042 	3.53745e-23 2.77676 	-0.065356 	1.02489e-23 2.77745 	-0.0642149 	0 2.78095 	-0.0626972 	1.11909e-20 2.78276 	-0.0615288 	3.75142e-20 2.78461 	-0.060362 	6.38287e-20 2.78649 	-0.0591967 	9.01345e-20 2.78716 	-0.0581176 	1.07497e-19 2.79033 	-0.0567421 	1.73096e-19 2.79201 	-0.0556537 	1.72017e-19 2.79372 	-0.0545666 	1.70967e-19 2.79545 	-0.0534808 	1.69944e-19 2.79611 	-0.052464 	1.02487e-19 2.79897 	-0.0512168 	8.75811e-20 2.80051 	-0.0502047 	5.31477e-20 2.80208 	-0.0491938 	1.87089e-20 2.80369 	-0.048184 	-1.57354e-20 2.80432 	-0.0472294 	-4.66897e-20 2.80689 	-0.0460979 	-9.02063e-20 2.80831 	-0.0451588 	-8.89984e-20 2.80976 	-0.0442205 	-8.78244e-20 2.81123 	-0.0432832 	-8.66841e-20 2.81184 	-0.0423901 	-3.70506e-20 2.81415 	-0.0413632 	-4.95332e-20 2.81545 	-0.0404935 	-3.17126e-20 2.81677 	-0.0396245 	-1.39099e-20 2.81811 	-0.0387564 	3.87497e-21 2.81869 	-0.0379236 	4.31038e-20 2.82077 	-0.0369913 	4.98632e-20 2.82195 	-0.0361876 	6.73341e-20 2.82316 	-0.0353846 	8.47968e-20 2.82439 	-0.0345822 	1.02251e-19 2.82492 	-0.0338082 	1.22066e-19 2.82679 	-0.0329616 	1.46225e-19 2.82787 	-0.0322206 	1.37003e-19 2.82896 	-0.0314802 	1.27801e-19 2.83008 	-0.0307402 	1.18621e-19 2.83056 	-0.0300232 	8.16887e-20 2.83225 	-0.0292545 	5.80648e-20 2.83322 	-0.0285729 	3.23167e-20 2.83421 	-0.0278917 	6.56676e-21 2.83522 	-0.027211 	-1.9185e-20 2.83566 	-0.0265489 	-4.10465e-20 2.83718 	-0.025851 	-5.61619e-20 2.83805 	-0.0252256 	-3.83881e-20 2.83895 	-0.0246005 	-2.06404e-20 2.83986 	-0.0239758 	-2.91879e-21 2.84024 	-0.0233664 	4.84823e-20 2.84161 	-0.0227331 	1.02316e-19 2.8424 	-0.0221607 	1.09997e-19 2.8432 	-0.0215886 	1.17721e-19 2.84402 	-0.0210168 	1.25489e-19 2.84434 	-0.0204576 	8.86213e-20 2.84559 	-0.0198833 	7.17988e-20 2.84629 	-0.0193609 	6.32551e-20 2.847 	-0.0188386 	5.47073e-20 2.84773 	-0.0183167 	4.61554e-20 2.84799 	-0.0178053 	3.76061e-20 2.84913 	-0.017285 	1.44083e-20 2.84975 	-0.0168095 	1.47557e-20 2.85039 	-0.0163342 	1.50805e-20 2.85104 	-0.0158591 	1.53828e-20 2.85122 	-0.015393 	4.14742e-20 2.85