# vtk DataFile Version 2.0
track0
ASCII
DATASET POLYDATA
POINTS 12278 float
-0.0205 0.001 1e-05
-0.02052 0.000999216 1e-05
-0.02054 0.000998592 1e-05
-0.02056 0.000998126 1e-05
-0.02058 0.000997818 1e-05
-0.0206 0.000997665 1e-05
-0.0205 0.00367778 1e-05
-0.02052 0.00367703 1e-05
-0.02054 0.00367643 1e-05
-0.02056 0.00367599 1e-05
-0.02058 0.00367569 1e-05
-0.0206 0.00367554 1e-05
-0.0205 0.00635556 1e-05
-0.02052 0.00635527 1e-05
-0.02054 0.00635505 1e-05
-0.02056 0.00635488 1e-05
-0.02058 0.00635476 1e-05
-0.0206 0.00635471 1e-05
-0.0205 0.00903333 1e-05
-0.02052 0.00903311 1e-05
-0.02054 0.00903293 1e-05
-0.02056 0.0090328 1e-05
-0.02058 0.00903271 1e-05
-0.0206 0.00903266 1e-05
-0.0205 0.0117111 1e-05
-0.02052 0.0117111 1e-05
-0.02054 0.011711 1e-05
-0.02056 0.011711 1e-05
-0.02058 0.011711 1e-05
-0.0206 0.011711 1e-05
-0.0205 0.0143889 1e-05
-0.02052 0.014389 1e-05
-0.02054 0.014389 1e-05
-0.02056 0.0143891 1e-05
-0.02058 0.0143891 1e-05
-0.0206 0.0143891 1e-05
-0.0205 0.0170667 1e-05
-0.02052 0.017067 1e-05
-0.02054 0.0170672 1e-05
-0.02056 0.0170674 1e-05
-0.02058 0.0170675 1e-05
-0.0206 0.0170676 1e-05
-0.0205 0.0197444 1e-05
-0.02052 0.019745 1e-05
-0.02054 0.0197454 1e-05
-0.02056 0.0197457 1e-05
-0.02058 0.0197459 1e-05
-0.0206 0.019746 1e-05
-0.0205 0.0224222 1e-05
-0.02052 0.022423 1e-05
-0.02054 0.0224236 1e-05
-0.02056 0.0224241 1e-05
-0.02058 0.0224244 1e-05
-0.0206 0.0224245 1e-05
-0.0205 0.0251 1e-05
-0.02052 0.0251003 1e-05
-0.02054 0.0251005 1e-05
-0.02056 0.0251007 1e-05
-0.02058 0.0251008 1e-05
-0.0206 0.0251008 1e-05
-0.0205 0.001 1e-05
-0.0203632 0.00100536 1e-05
-0.0202266 0.00101331 1e-05
-0.0200901 0.00102296 1e-05
-0.0200427 0.00102682 1e-05
-0.0198376 0.00104418 1e-05
-0.0196338 0.00107322 1e-05
-0.0194327 0.00111734 1e-05
-0.0192368 0.00118024 1e-05
-0.0190172 0.00124951 1e-05
-0.0189002 0.00128348 1e-05
-0.0187827 0.00131598 1e-05
-0.0186649 0.001347 1e-05
-0.0185469 0.001377 1e-05
-0.0183807 0.00141936 1e-05
-0.0182041 0.00146458 1e-05
-0.0180267 0.00150692 1e-05
-0.0178487 0.0015464 1e-05
-0.0176703 0.00158389 1e-05
-0.0174976 0.00161991 1e-05
-0.0172846 0.00166394 1e-05
-0.0170715 0.00170741 1e-05
-0.0168583 0.00175029 1e-05
-0.0166449 0.00179219 1e-05
-0.0163945 0.00184007 1e-05
-0.0163234 0.00185324 1e-05
-0.0162522 0.00186629 1e-05
-0.016181 0.00187921 1e-05
-0.0161097 0.00189201 1e-05
-0.0160387 0.0019046 1e-05
-0.0157586 0.0019535 1e-05
-0.0154779 0.00199931 1e-05
-0.0151968 0.00204225 1e-05
-0.0149154 0.00208283 1e-05
-0.0146381 0.00212134 1e-05
-0.0143838 0.00215527 1e-05
-0.0141293 0.00218766 1e-05
-0.0138747 0.00221855 1e-05
-0.0136198 0.00224797 1e-05
-0.0132934 0.00228369 1e-05
-0.0132791 0.00228515 1e-05
-0.0132648 0.0022866 1e-05
-0.0132504 0.00228805 1e-05
-0.0132361 0.0022895 1e-05
-0.0132214 0.00229098 1e-05
-0.0129776 0.00231543 1e-05
-0.0127337 0.00233865 1e-05
-0.0124897 0.00236061 1e-05
-0.0122456 0.00238129 1e-05
-0.0120025 0.00240058 1e-05
-0.0117547 0.00241909 1e-05
-0.0115067 0.00243627 1e-05
-0.0112587 0.00245231 1e-05
-0.0110106 0.00246734 1e-05
-0.0107632 0.00248136 1e-05
-0.0105252 0.00249391 1e-05
-0.0102872 0.00250547 1e-05
-0.0100491 0.00251602 1e-05
-0.00981105 0.00252575 1e-05
-0.00957337 0.00253471 1e-05
-0.00934491 0.00254261 1e-05
-0.00911643 0.00254974 1e-05
-0.00888792 0.0025561 1e-05
-0.0086594 0.00256171 1e-05
-0.00843108 0.00256668 1e-05
-0.00821175 0.00257084 1e-05
-0.00799241 0.00257439 1e-05
-0.00777306 0.00257731 1e-05
-0.0075537 0.00257952 1e-05
-0.00733443 0.00258114 1e-05
-0.00712387 0.00258212 1e-05
-0.0069133 0.00258255 1e-05
-0.00670273 0.00258243 1e-05
-0.00649216 0.00258162 1e-05
-0.0062816 0.00258017 1e-05
-0.00607944 0.00257819 1e-05
-0.0058773 0.00257565 1e-05
-0.00567516 0.00257256 1e-05
-0.00547303 0.00256874 1e-05
-0.00527083 0.00256419 1e-05
-0.00507675 0.00255912 1e-05
-0.00488269 0.00255342 1e-05
-0.00468865 0.0025471 1e-05
-0.00449464 0.00253997 1e-05
-0.00430044 0.0025319 1e-05
-0.00411412 0.00252328 1e-05
-0.00392784 0.00251388 1e-05
-0.00374159 0.00250368 1e-05
-0.0035554 0.00249254 1e-05
-0.00336883 0.00248015 1e-05
-0.00318995 0.00246711 1e-05
-0.00301115 0.00245299 1e-05
-0.00283245 0.00243774 1e-05
-0.00265386 0.0024212 1e-05
-0.00247443 0.00240313 1e-05
-0.0023027 0.00238425 1e-05
-0.00213114 0.00236383 1e-05
-0.00195982 0.00234153 1e-05
-0.00178875 0.00231737 1e-05
-0.00161577 0.00229104 1e-05
-0.00161569 0.00229103 1e-05
-0.00161561 0.00229102 1e-05
-0.00161553 0.002291 1e-05
-0.00161545 0.00229099 1e-05
-0.00161537 0.00229098 1e-05
-0.00145058 0.00226407 1e-05
-0.00128619 0.00223481 1e-05
-0.00112223 0.00220325 1e-05
-0.000958712 0.00216946 1e-05
-0.000791418 0.00213235 1e-05
-0.000633135 0.00209424 1e-05
-0.000475556 0.00205331 1e-05
-0.000318719 0.00200962 1e-05
-0.000162835 0.00196265 1e-05
0 0.00190949 1e-05
3.73278e-05 0.0018963 1e-05
7.45556e-05 0.00188282 1e-05
0.000111685 0.00186908 1e-05
0.000148717 0.00185508 1e-05
0.000179019 0.00184337 1e-05
0.000248892 0.00181593 1e-05
0.000318355 0.00178747 1e-05
0.000387392 0.00175798 1e-05
0.00045599 0.00172749 1e-05
0.000528387 0.0016941 1e-05
0.000634886 0.00164312 1e-05
0.000740278 0.00158989 1e-05
0.00084451 0.00153442 1e-05
0.00094762 0.0014769 1e-05
0.00101982 0.00143468 1e-05
0.00102803 0.00142972 1e-05
0.00103623 0.00142474 1e-05
0.00104443 0.00141975 1e-05
0.00105261 0.00141474 1e-05
0.00106088 0.00140966 1e-05
0.00116821 0.00134347 1e-05
0.00127404 0.00127491 1e-05
0.00137827 0.00120395 1e-05
0.00148099 0.00113082 1e-05
0.00159662 0.00104511 1e-05
0.0015968 0.00104497 1e-05
0.00159698 0.00104483 1e-05
0.00159716 0.00104469 1e-05
0.00159734 0.00104455 1e-05
0.00159752 0.00104441 1e-05
0.00169216 0.000970849 1e-05
0.00178541 0.000895527 1e-05
0.00187717 0.000818406 1e-05
0.00196752 0.000739632 1e-05
0.0020379 0.000676366 1e-05
0.00205799 0.000657858 1e-05
0.00207799 0.000639261 1e-05
0.00209791 0.000620573 1e-05
0.00211777 0.000601823 1e-05
0.00213833 0.000582288 1e-05
0.00219144 0.000531489 1e-05
0.00224405 0.000480174 1e-05
0.00229615 0.000428334 1e-05
0.00234772 0.000375964 1e-05
0.002394 0.000328254 1e-05
0.00245187 0.00026777 1e-05
0.0025091 0.000206686 1e-05
0.0025657 0.000145018 1e-05
0.0026218 8.28831e-05 1e-05
0.00268334 1.35297e-05 1e-05
0.00268569 1.08237e-05 1e-05
0.00268804 8.11681e-06 1e-05
0.0026904 5.40889e-06 1e-05
0.00269275 2.69996e-06 1e-05
0.00269509 0 1e-05
0.00275899 -7.37367e-05 1e-05
0.00282226 -0.000148005 1e-05
0.0028849 -0.000222813 1e-05
0.00294688 -0.000298172 1e-05
0.00300395 -0.000368654 1e-05
0.00304968 -0.000425963 1e-05
0.00309509 -0.000483518 1e-05
0.0031402 -0.000541315 1e-05
0.00318506 -0.000599307 1e-05
0.00323259 -0.000661317 1e-05
0.00325061 -0.000685072 1e-05
0.00326858 -0.000708867 1e-05
0.0032865 -0.000732702 1e-05
0.00330437 -0.000756577 1e-05
0.00332189 -0.000780089 1e-05
0.00339003 -0.000871876 1e-05
0.00345757 -0.000964106 1e-05
0.00352449 -0.00105679 1e-05
0.00359086 -0.00114986 1e-05
0.00365373 -0.00123896 1e-05
0.0036802 -0.00127688 1e-05
0.0037066 -0.00131486 1e-05
0.00373293 -0.00135289 1e-05
0.0037592 -0.00139095 1e-05
0.00378611 -0.00143005 1e-05
0.00383007 -0.00149414 1e-05
0.00387381 -0.00155837 1e-05
0.00391734 -0.00162274 1e-05
0.00396064 -0.00168728 1e-05
0.00400277 -0.00175043 1e-05
0.004071 -0.0018533 1e-05
0.00413882 -0.00195644 1e-05
0.00420621 -0.00205986 1e-05
0.00427331 -0.00216347 1e-05
0.00434393 -0.00227318 1e-05
0.00434996 -0.00228261 1e-05
0.00435598 -0.00229203 1e-05
0.00436199 -0.00230146 1e-05
0.00436801 -0.00231089 1e-05
0.004374 -0.0023203 1e-05
0.00445485 -0.00244725 1e-05
0.00453525 -0.00257448 1e-05
0.00461525 -0.00270197 1e-05
0.0046949 -0.00282967 1e-05
0.00477277 -0.00295497 1e-05
0.00479944 -0.00299803 1e-05
0.00482607 -0.00304109 1e-05
0.00485268 -0.00308418 1e-05
0.00487929 -0.00312726 1e-05
0.00490609 -0.00317067 1e-05
0.00496671 -0.00326886 1e-05
0.00502718 -0.00336715 1e-05
0.0050875 -0.00346552 1e-05
0.00514768 -0.00356398 1e-05
0.00520732 -0.00366161 1e-05
0.00526038 -0.00374854 1e-05
0.0053134 -0.00383549 1e-05
0.00536638 -0.00392247 1e-05
0.00541938 -0.00400943 1e-05
0.00547262 -0.00409666 1e-05
0.00551558 -0.00416695 1e-05
0.00555851 -0.00423726 1e-05
0.00560141 -0.00430759 1e-05
0.00564429 -0.00437794 1e-05
0.0056871 -0.00444811 1e-05
0.00575839 -0.00456487 1e-05
0.00582973 -0.0046816 1e-05
0.00590111 -0.00479829 1e-05
0.00597263 -0.00491491 1e-05
0.00604356 -0.00503009 1e-05
0.00607981 -0.00508872 1e-05
0.00611607 -0.00514735 1e-05
0.00615233 -0.00520597 1e-05
0.00618862 -0.00526458 1e-05
0.00622502 -0.00532326 1e-05
0.0063038 -0.00545002 1e-05
0.00638277 -0.00557667 1e-05
0.00646194 -0.0057032 1e-05
0.00654138 -0.00582955 1e-05
0.00661893 -0.00595209 1e-05
0.00666283 -0.00602101 1e-05
0.00670679 -0.0060899 1e-05
0.0067508 -0.00615875 1e-05
0.00679489 -0.00622755 1e-05
0.00683936 -0.00629671 1e-05
0.00691125 -0.00640811 1e-05
0.00698338 -0.00651934 1e-05
0.00705578 -0.00663041 1e-05
0.00712846 -0.00674128 1e-05
0.00719878 -0.00684773 1e-05
0.00726948 -0.006954 1e-05
0.0073404 -0.00706011 1e-05
0.00741155 -0.00716607 1e-05
0.007483 -0.00727182 1e-05
0.00755599 -0.00737909 1e-05
0.00760142 -0.00744537 1e-05
0.00764698 -0.00751157 1e-05
0.00769266 -0.00757768 1e-05
0.00773847 -0.0076437 1e-05
0.00778313 -0.00770771 1e-05
0.00790091 -0.00787567 1e-05
0.00801946 -0.00804309 1e-05
0.00813878 -0.00820996 1e-05
0.0082591 -0.00837611 1e-05
0.00837203 -0.00853001 1e-05
0.00837975 -0.00854039 1e-05
0.00838747 -0.00855076 1e-05
0.0083952 -0.00856113 1e-05
0.00840292 -0.0085715 1e-05
0.00841068 -0.00858189 1e-05
0.00852164 -0.00873051 1e-05
0.00863343 -0.0088785 1e-05
0.00874606 -0.00902586 1e-05
0.00885956 -0.00917255 1e-05
0.00896551 -0.00930763 1e-05
0.00903014 -0.00938897 1e-05
0.00909504 -0.0094701 1e-05
0.0091602 -0.00955101 1e-05
0.00922567 -0.00963168 1e-05
0.00929331 -0.00971439 1e-05
0.00934736 -0.00977996 1e-05
0.00940162 -0.00984537 1e-05
0.00945607 -0.00991062 1e-05
0.00951071 -0.00997571 1e-05
0.0095636 -0.0100383 1e-05
0.00968415 -0.01018 1e-05
[...]
POINT_DATA 12278
 FIELD attributes 2
p 1 12278 float
177013 177095 177167 177230 177284 177329
108946 108964 108980 108995 109007 109017
87752.7 87762.3 87771.7 87780.8 87789.8 87798.2
79935 79941.3 79947.5 79953.7 79959.7 79965.7
77144.1 77153.3 77162.5 77171.8 77181 77190.2
77561.5 77575.1 77588.6 77602.2 77615.7 77629.3
81094.7 81107.1 81119.3 81131.4 81143.3 81155.1
90921.1 90940.9 90959.9 90978.2 90995.8 91012.6
117353 117386 117416 117444 117470 117494
215472 215282 215090 214896 214700 214502
177013 173407 169080 164502 162836 158904 155521 152871 144705 134664 129222 123793 119855 119244 118392 112346 106447 102326 101430 100563 99581.1 98598.9 97172.2 95703.9 93988.3 93621.8 93254.8 92887.3 92406.3 91908.6 89989 88185.1 86671.1 85883.8 85107 84421.2 83756.5 83106.7 82454.9 81621 81586 81557.1 81529.1 81501.1 81472.2 80939.5 80407.2 79875.4 79344.1 78919 78492.8 78083.6 77685.9 77310.3 76944.3 76594.4 76244.1 75920.4 75618.9 75317.8 75028.4 74738.7 74460.2 74197.4 73934.8 73681.1 73427.4 73177.3 72941.2 72705.1 72476.2 72247.3 72016.8 71797.3 71578.1 71364.5 71150.9 70932.3 70721.5 70510.8 70303.7 70096.7 69883.8 69671.4 69459.2 69247.3 69035.8 68820.7 68592.6 68365 68132.1 67896.5 67652.4 67399.7 67133.8 66853.5 66539.8 66227.6 65917 65604 65603.8 65603.6 65603.4 65603.2 65603 65211.7 64826.1 64446.2 64048 63567.9 63052.3 62542.6 61841.5 61068.4 60255.2 60007.1 59769.2 59542.2 59315.9 59130.6 58573.6 58014.3 57453 56979.6 56511.2 55906.6 55303.9 54764.1 54223 53838.9 53780.6 53722.3 53666.9 53619.2 53570.9 53017.7 52457.3 51939.3 51466.9 50921.9 50920.7 50919.6 50918.6 50917.7 50916.8 50489.8 50055.2 49652.8 49317.4 49048.4 48949.1 48849.3 48778.4 48708.7 48636 48447.6 48256.9 48064.3 47920 47787.9 47615.1 47446.4 47306.7 47165 47005.6 46999.2 46992.9 46986.5 46980.7 46975.3 46869.9 46757.7 46642.9 46529.6 46422.6 46387.1 46350.3 46310.7 46270.4 46226.5 46206.4 46186.2 46165.8 46144.6 46123.6 46098.2 46071.5 46034.4 45992.1 45950.6 45953 45955.1 45954.4 45953.6 45952.6 45941.4 45929.7 45917.5 45902.5 45887.3 45897.1 45906.2 45910.8 45914.8 45918.5 45917.6 45916.8 45915.9 45914.9 45913.8 45927.4 45941 45953.6 45964.4 45974.7 45985 45995.2 46005.1 46014.8 46024.6 46036.1 46047.5 46058.7 46069.8 46080.7 46099.2 46117.6 46136.1 46154.6 46173.2 46181.8 46190.4 46199 46208.2 46217.3 46240 46262.7 46286.1 46310 46333.8 46341.2 46348.6 46356.3 46364.6 46372.9 46396.1 46419.4 46443.6 46468.9 46493.6 46502.5 46511.5 46521.1 46531.3 46541.7 46561.3 46581.1 46601.5 46623.4 46644.6 46658.5 46672.5 46688.2 46704.5 46721.2 46732.7 46744.3 46756 46768.7 46781.1 46803 46825.2 46850.6 46876.8 46902.8 46903.9 46905 46906.4 46907.8 46909.2 46930.3 46951.7 46973.5 46997.4 47019.8 47029.3 47038.9 47049.9 47061 47072.5 47082.2 47091.9 47101.7 47112.1 47122.2 47139.4 47156.7 47175.7 47195.6 47214.9 47217.5 47220.2 47223.1 47226.1 47229.1 47243.4 47257.8 47272.4 47287.9 47302.8 47316.6 47330.8 47346.3 47361.9 47378.8 47378.9 47379 47379 47379.1 47379.2 47393.8 47408.5 47423.3 47439.2 47454.5 47466.5 47479.1 47492.7 47506.4 47519.5 47520.1 47520.8 47521.5 47522.2 47522.9 47534.7 47546.5 47558.4 47571 47583.5 47593.8 47604.1 47615.7 47627.9 47640 47644 47648.4 47653.1 47657.7 47662.7 47668.5 47674.4 47680.2 47686.4 47692.7 47701.5 47710.7 47720.4 47731.3 47741.7 47749.4 47757.5 47766.4 47775.3 47784.5 47786.6 47789.1 47791.6 47794.2 47796.8 47802.2 47807.5 47812.9 47818.4 47824.5 47830.7 47837.3 47844.2 47852.2 47860.1 47865.1 47870.2 47876.4 47883.1 47889.8 47893.4 47898.1 47902.8 47907.4 47912.7 47913 47913.2 47913.4 47913.7 47914 47918.1 47922.3 47926.4 47930.5 47935.6 47937.9 47940.5 47943.4 47947.3 47951.2 47952.3 47953.4 47955.4 47958.2 47960.8 47960.8 47961.3 47962.2 47963 47964.5 47963.7 47963.4 47963.1 47962.8 47962.4 47962.4 47962.4 47962.4 47962.4 47962.4 47961 47959.7 47958.4 47957 47956.2 47953 47950.5 47947.9 47945.7 47943.8 47939.5 47935.2 47931.5 47928.4 47925.4 47919.9 47914.3 47909.4 47905.1 47900.9 47894.2 47887.7 47881.6 47875.9 47870.4 47862.7 47855.3 47848 47840.8 47834.2 47825.4 47817.1 47808.7 47800.3 47792.2 47783.6 47775.2 47766.7 47758.2 47748.4 47747.6 47746.9 47746.2 47745.5 47744.8 47734.3 47723.9 47713.4 47703 47692.6 47680.9 47669.4 47657.9 47646.4 47635.1 47622.1 47609.7 47597.2 47584.7 47572.4 47558.5 47544.8 47531.4 47518 47504.7 47489.9 47475.1 47460.7 47446.4 47432.2 47416.5 47400.7 47385.5 47370.3 47355.1 47338.5 47322 47305.7 47289.6 47273.6 47256.2 47238.9 47221.7 47204.8 47187.9 47169.8 47151.7 47133.6 47115.9 47098.2 47079.4 47060.6 47041.7 47023.2 47004.7 46985.2 46965.7 46946.2 46926.9 46907.7 46887.5 46867.4 46847.2 46827.1 46807.2 46786.5 46765.7 46744.9 46724.1 46703.6 46682.3 46660.9 46639.4 46618.1 46596.9 46575 46553.1 46531.1 46509.1 46487.4 46465 46442.5 46420 46397.5 46375.2 46352.3 46329.3 46306.3 46283.3 46260.5 46237.1 46213.7 46190.2 46166.7 46143.4 46119.6 46095.7 46071.8 46047.9 46024.1 45999.9 45975.6 45951.3 45926.9 45902.7 45878.1 45853.4 45828.7 45804 45779.4 45754.4 45729.4 45704.3 45679.2 45654.2 45628.9 45603.5 45578.1 45552.7 45527.4 45501.7 45476 45450.3 45424.6 45398.9 45372.9 45346.9 45320.9 45294.9 45268.9 45242.7 45216.4 45190.1 45163.8 45137.5 45111 45084.4 45057.8 45031.3 45004.7 44977.9 44951.1 44924.3 44897.5 44870.7 44843.6 44816.6 44789.5 44762.5 44735.4 44708.2 44680.9 44653.6 44626.3 44599 44571.6 44544.1 44516.5 44489 44461.5 44433.9 44406.1 44378.4 44350.7 44323 44295.1 44267.2 44239.3 44211.4 44183.5 44155.4 44127.3 44099.2 44071.1 44043 44014.7 43986.4 43958.1 43929.8 43901.5 43873.1 43844.6 43816.1 43787.6 43759.1 43730.5 43701.9 43673.2 43644.5 43615.9 43587.1 43558.3 43529.4 43500.6 43471.7 43442.8 43413.8 43384.8 43355.8 43326.7 43297.6 43268.4 43239.2 43210.1 43180.9 43151.5 43122.2 43092.8 43063.5 43034.1 43004.7 42975.1 42945.6 42916.1 42886.6 42856.9 42827.2 42797.5 42767.8 42738.1 42708.3 42678.4 42648.6 42618.7 42588.8 42558.8 42528.8 42498.7 42468.7 42438.7 42408.5 42378.3 42348.1 42317.9 42287.6 42257.3 42226.9 42196.5 42166.1 42135.7 42105.2 42074.6 42044 42013.5 41982.9 41952.2 41921.4 41890.7 41859.9 41829.1 41798.2 41767.3 41736.4 41705.4 41674.5 41643.4 41612.3 41581.1 41550 41518.9 41487.6 41456.3 41425 41393.7 41362.3 41330.8 41299.3 41267.8 41236.3 41204.8 41173.1 41141.4 41109.7 41078 41046.2 41014.4 40982.5 40950.5 40918.6 40886.7 40854.6 40822.5 40790.4 40758.3 40726.1 40693.8 40661.5 40629.2 40596.8 40564.5 40532 40499.4 40466.9 40434.3 40401.7 40369 40336.3 40303.5 40270.8 40237.9 40205 40172 40139 40106.1 40073 40039.9 40006.7 39973.4 39940.2 39907 39873.6 39840.2 39806.7 39773.3 39739.8 39706.2 39672.5 39638.8 39605.1 39571.4 39537.6 39503.6 39469.7 39435.8 39401.8 39367.8 39333.6 39299.4 39265.3 39231.1 39196.7 39162.3 39127.9 39093.5 39059.1 39024.5 38989.8 38955.2 38920.5 38885.8 38851 38816.1 38781.2 38746.3 38711.3 38676.2 38641.1 38605.9 38570.7 38535.5 38500.2 38464.8 38429.3 38393.9 38358.4 38322.8 38287.1 38251.5 38215.8 38180 38144.1 38108.2 38072.2 38036.3 38000.3 37964.1 37927.9 37891.7 37855.5 37819.2 37782.8 37746.3 37709.8 37673.3 37636.7 37600 37563.3 37526.5 37489.7 37452.9 37415.9 37378.9 37341.8 37304.8 37267.6 37230.4 37193.1 37155.7 37118.4 37081 37043.4 37005.8 36968.2 36930.6 36892.9 36855.1 36817.2 36779.3 36741.4 36703.4 36665.3 36627.1 36588.9 36550.7 36512.4 36474 36435.5 36397 36358.5 36319.9 36281.2 36242.5 36203.7 36164.9 36126 36087 36047.9 36008.9 35969.7 35930.6 35891.3 35851.9 35812.5 35773.1 35733.6 35694 35654.4 35614.7 35574.9 35535.2 35495.2 35455.3 35415.3 35375.2 35335.2 35294.9 35254.7 35214.3 35174 35133.6 35093 35052.5 35011.8 34971.2 34930.5 34889.6 34848.7 34807.8 34766.8 34725.8 34684.6 34643.4 34602.1 34560.8 34519.5 34478 34436.4 34394.9 34353.2 34311.6 34269.7 34227.9 34186 34144 34102 34059.9 34017.7 33975.5 33933.2 33890.9 33848.4 33805.9 33763.4 33720.7 33678.1 33635.3 33592.5 33549.6 33506.6 33463.7 33420.5 33377.4 33334.1 33290.8 33247.5 33204.1 33160.6 33117 33073.4 33029.7 32985.9 32942.1 32898.2 32854.2 32810.2 32766.1 32721.9 32677.7 32633.4 32589 32544.5 32500 32455.4 32410.8 32366.1 32321.3 32276.4 32231.5 32186.5 32141.4 32096.2 32051 32005.8 31960.4 31915 31869.5 31823.9 31778.3 31732.6 31686.9 31640.9 31595 31549 31503 31456.9 31410.6 31364.4 31318 31271.6 31225.2 31178.5 31131.9 31085.2 31038.4 30991.6 30944.6 30897.6 30850.5 30803.4 30756.2 30708.9 30661.5 30614.1 30566.6 30519 30471.3 30423.6 30375.8 30327.9 30280 30231.9 30183.8 30135.6 30087.3 30039.1 29990.6 29942.1 29893.5 29844.9 29796.3 29747.4 29698.5 29649.6 29600.6 29551.6 29502.3 29453.1 29403.8 29354.4 29304.9 29255.3 29205.7 29156 29106.2 29056.4 29006.4 28956.4 28906.2 28856.1 28805.9 28755.5 28705.1 28654.6 28604 28553.4 28502.6 28451.8 28400.9 28349.9 28298.9 28247.7 28196.5 28145.2 28093.8 28042.4 27990.8 27939.2 27887.5 27835.7 27783.9 27731.9 27679.8 27627.7 27575.5 27523.3 27470.9 27418.4 27365.9 27313.3 27260.6 27207.8 27154.9 27101.9 27048.9 26995.9 26942.5 26889.2 26835.9 26782.4 26729 26675.2 26621.5 26567.7 26513.8 26459.9 26405.8 26351.6 26297.4 26243.1 26188.8 26134.2 26079.7 26025 25970.4 25915.7 25860.7 25805.7 25750.7 25695.7 25640.6 25585.2 25529.9 25474.5 25419.2 25363.8 25308.1 25252.5 25196.9 25141.2 25085.6 25029.7 24973.9 24918.2 24862.4 24806.7 24750.8 24695 24639.3 24583.7 24528 24472.3 24417 24361.9 24306.8 24252.1 24197.4 24142.4 24087.4 24032.4 23977.1 23922.3 23873.7 23825 23776.4 23732.7 23683.5 23618.2 23552.7 23487.2 23412.7 23361.5 23331.1 23301 23271.3 23257.1 23252.9 23248.7 23244.6 23240.4 23238.9 23236.3 23231 23225.8 23220.5 23214.8 23187.8 23160.6 23133.2 23105.5 23061.9 22986 22917 22848 22779.2 22722.9 22671.7 22615.5 22559.1 22502.7 22440 22372.3 22304.2 22236.1 22168 22099.6 22028.3 21955 21881.8 21808.6 21733.2 21655 21575.2 21495.4 21415.6 21334.2 21249.9 21163.8 21077.6 20991.5 20903.5 20812.5 20719.6 20626.6 20533.6 20438.8 20340.7 20240.5 20140.2 20039.8 19937.5 19831.6 19723.4 19615.1 19506.7 19396.2 19281.9 19164.8 19047.6 18930.3 18810.5 18686.5 18559.7 18432.8 18305.8 18176.4 18042.3 17904.4 17766.2 17627.9 17486 17339 17189.3 17039.5 16889.5 16737.3 16579.5 16414.9 16250 16084.8 15913.3 15735.5 15557.4 15379.2 15201.1 15023 14838.4 14638.9 14438.5 14237.4 14022.2 13799 13585.9 13373.4 13161.4 12960.1 12751.2 12503.7 12254 12002.1 11712.8 11412.6 11157.3 10904.8 10655 10450.3 10237.7 9921.71 9598.14 9265.98 8833.3 8384.31 8071.56 7773.94 7494.36 7349.25 7198.22 6801.74 6357.28 5839.04 5089.67 4311.39 3779.23 3398.31 3250.95 3316.68 3382.98 3362.03 2777.14 1388.16 0