/*--------------------------------*- C++ -*----------------------------------*\
  =========                 |
  \\      /  F ield         | OpenFOAM: The Open Source CFD Toolbox
   \\    /   O peration     | Website:  https://openfoam.org
    \\  /    A nd           | Version:  8
     \\/     M anipulation  |
\*---------------------------------------------------------------------------*/
FoamFile
{
    version     2.0;
    format      ascii;
    class       volScalarField;
    location    "1.2";
    object      Ca1;
}
// * * * * * * * * * * * * * * * * * * * * * * * * * * * * * * * * * * * * * //

dimensions      [0 0 0 0 0 0 0];

internalField   nonuniform List<scalar> 
6300
(
0.025896
0.0992407
0.156933
0.202622
0.242145
0.279059
0.315984
0.354228
0.394118
0.435526
0.478203
0.521913
0.566471
0.611728
0.657575
0.703928
0.750722
0.797912
0.845465
0.893358
0.94158
0.990125
1.03899
1.0882
1.13779
1.18796
1.23979
1.29882
1.39303
1.68488
0.0502803
0.123763
0.180921
0.228238
0.268949
0.306589
0.343975
0.38252
0.422566
0.463966
0.506453
0.549794
0.593807
0.638356
0.683338
0.728678
0.774319
0.82022
0.866352
0.912692
0.959229
1.00595
1.05285
1.09993
1.14719
1.19483
1.24391
1.30008
1.39227
1.67631
0.0551559
0.12249
0.18321
0.237312
0.283327
0.323713
0.362066
0.400782
0.440867
0.482431
0.525219
0.568925
0.6133
0.658151
0.703338
0.748757
0.79433
0.840003
0.885736
0.931503
0.977293
1.0231
1.06894
1.11483
1.16082
1.20715
1.25489
1.30956
1.39894
1.67521
0.0649154
0.125845
0.18575
0.242233
0.291804
0.335068
0.374973
0.414325
0.454639
0.496314
0.539191
0.582971
0.627388
0.672233
0.717352
0.762626
0.807962
0.853263
0.8983
0.942991
0.987615
1.03223
1.07684
1.12144
1.16604
1.21083
1.25704
1.31051
1.40001
1.67014
0.0750321
0.131495
0.189237
0.245577
0.296386
0.341155
0.382118
0.421956
0.462366
0.503935
0.546619
0.590168
0.634332
0.678912
0.723755
0.768746
0.813795
0.858828
0.903301
0.947357
0.991429
1.03552
1.07961
1.1237
1.16779
1.21209
1.25784
1.31108
1.40117
1.66592
0.0849102
0.138358
0.194249
0.249956
0.301273
0.34706
0.38893
0.429311
0.469933
0.511505
0.554074
0.597445
0.641392
0.685724
0.730297
0.774998
0.819742
0.864462
0.907962
0.951457
0.994983
1.03853
1.0821
1.12567
1.16926
1.21309
1.25845
1.31158
1.4024
1.66177
0.0945648
0.145867
0.200325
0.255312
0.306726
0.353135
0.395705
0.436588
0.477461
0.519092
0.5616
0.604834
0.648593
0.692699
0.737016
0.781436
0.825876
0.869505
0.912408
0.955352
0.998335
1.04135
1.0844
1.12747
1.17058
1.21397
1.25899
1.31212
1.40368
1.65765
0.104035
0.153705
0.207058
0.26137
0.312668
0.359421
0.402502
0.443812
0.484934
0.526652
0.56913
0.612257
0.65585
0.699749
0.743823
0.787972
0.832112
0.874412
0.916757
0.959148
1.00159
1.04407
1.08661
1.12918
1.17183
1.2148
1.25953
1.3127
1.40497
1.65354
0.113359
0.161739
0.214227
0.267943
0.319028
0.365945
0.409387
0.451049
0.492401
0.534215
0.576684
0.619722
0.663169
0.706875
0.75072
0.794607
0.837506
0.879242
0.921025
0.962861
1.00476
1.04672
1.08874
1.13082
1.17302
1.2156
1.26006
1.31331
1.40627
1.64941
0.122573
0.169914
0.221713
0.274912
0.325742
0.372709
0.4164
0.458343
0.499901
0.541815
0.584288
0.627253
0.670568
0.714094
0.757719
0.80135
0.842831
0.883997
0.925215
0.966494
1.00785
1.04928
1.09079
1.13241
1.17417
1.21637
1.26059
1.31396
1.40755
1.64525
0.131705
0.17821
0.229451
0.282198
0.332757
0.379701
0.423556
0.465726
0.507465
0.549475
0.591958
0.634861
0.678055
0.721412
0.764825
0.807552
0.848098
0.888687
0.929336
0.970058
1.01087
1.05177
1.09279
1.13393
1.17527
1.21711
1.2611
1.3146
1.40879
1.64107
0.140786
0.18662
0.237404
0.289751
0.340034
0.386904
0.430866
0.473213
0.515111
0.55721
0.599707
0.642558
0.68564
0.728834
0.772041
0.813354
0.853312
0.893318
0.933394
0.973556
1.01382
1.05421
1.09473
1.13541
1.17631
1.2178
1.2616
1.31524
1.40998
1.63684
0.149841
0.195145
0.245553
0.297539
0.347544
0.39431
0.43833
0.480817
0.522852
0.565035
0.607548
0.650349
0.693326
0.736366
0.779372
0.81912
0.85848
0.897898
0.937395
0.976993
1.01671
1.05657
1.09661
1.13682
1.17732
1.21846
1.26206
1.31587
1.41111
1.63257
0.158896
0.203789
0.253885
0.30554
0.355267
0.401902
0.445948
0.488547
0.530699
0.572957
0.615486
0.658243
0.701121
0.74401
0.786143
0.824855
0.863609
0.902429
0.941342
0.980373
1.01955
1.05889
1.09842
1.13818
1.17826
1.21907
1.26248
1.31646
1.41216
1.62824
0.167975
0.212558
0.262395
0.313741
0.363189
0.409676
0.453721
0.496406
0.53866
0.580986
0.62353
0.666246
0.709028
0.751771
0.79248
0.830565
0.868701
0.906916
0.945239
0.983697
1.02232
1.06114
1.10018
1.13948
1.17915
1.21963
1.26286
1.31702
1.41314
1.62386
0.177099
0.22146
0.27108
0.322132
0.371298
0.417622
0.461645
0.504398
0.54674
0.589129
0.631688
0.674364
0.717054
0.759655
0.798808
0.836253
0.873761
0.911362
0.949087
0.986968
1.02503
1.06332
1.10187
1.14072
1.17997
1.22012
1.26319
1.31753
1.41403
1.61942
0.18629
0.230501
0.279937
0.330706
0.379588
0.425738
0.469722
0.512527
0.554946
0.597392
0.639964
0.682602
0.725202
0.767664
0.805131
0.841923
0.878791
0.915769
0.952889
0.990186
1.02769
1.06545
1.1035
1.14188
1.18073
1.22055
1.26345
1.31798
1.41483
1.61492
0.195567
0.23969
0.288969
0.339461
0.388054
0.434018
0.47795
0.520794
0.563282
0.60578
0.648363
0.690966
0.733479
0.775392
0.811452
0.847577
0.883795
0.92014
0.956646
0.993352
1.03029
1.06751
1.10505
1.14297
1.18141
1.2209
1.26364
1.31838
1.41553
1.61035
0.204948
0.249034
0.298177
0.348395
0.396694
0.442463
0.486331
0.529202
0.571751
0.614297
0.656893
0.69946
0.741889
0.782411
0.817774
0.853217
0.888773
0.924474
0.960357
0.996463
1.03283
1.06951
1.10654
1.14399
1.18201
1.22117
1.26376
1.3187
1.41612
1.6057
0.214451
0.258539
0.307564
0.357508
0.405505
0.451069
0.494864
0.537755
0.580359
0.62295
0.665557
0.70809
0.750437
0.789449
0.824097
0.858846
0.893726
0.928771
0.964023
0.99952
1.03531
1.07143
1.10795
1.14493
1.18253
1.22135
1.2638
1.31895
1.41661
1.60098
0.22409
0.268216
0.317132
0.3668
0.414488
0.459838
0.503551
0.546454
0.589108
0.631741
0.67436
0.716862
0.759129
0.796507
0.830423
0.864462
0.898654
0.933034
0.967641
1.00252
1.03772
1.07329
1.10928
1.14578
1.18296
1.22145
1.26376
1.31912
1.41697
1.59617
0.23388
0.278072
0.326886
0.376274
0.423644
0.468772
0.512394
0.555303
0.598002
0.640678
0.683308
0.725781
0.76797
0.803585
0.836753
0.870068
0.903558
0.937259
0.971213
1.00547
1.04007
1.07507
1.11053
1.14654
1.18328
1.22144
1.26361
1.3192
1.41721
1.59127
0.243836
0.288115
0.336831
0.385933
0.432975
0.477871
0.521397
0.564306
0.607047
0.649764
0.692408
0.734852
0.776967
0.810684
0.843088
0.875664
0.908437
0.941447
0.974734
1.00835
1.04234
1.07676
1.11169
1.14719
1.18351
1.22133
1.26338
1.31918
1.41733
1.58628
0.253971
0.298353
0.346972
0.395779
0.442484
0.48714
0.530562
0.573467
0.616248
0.659005
0.701663
0.744082
0.786124
0.817806
0.849428
0.881247
0.91329
0.945595
0.978204
1.01116
1.04454
1.07837
1.11275
1.14775
1.18362
1.22111
1.26303
1.31906
1.4173
1.58119
0.264297
0.308795
0.357315
0.405817
0.452174
0.496582
0.539893
0.58279
0.62561
0.668407
0.711081
0.753478
0.794349
0.82495
0.855771
0.886818
0.918116
0.949701
0.981618
1.01392
1.04666
1.07989
1.1137
1.1482
1.18362
1.22077
1.26256
1.31883
1.41713
1.576
0.274826
0.319449
0.367866
0.416053
0.462051
0.506201
0.549396
0.592281
0.635138
0.677976
0.720668
0.763045
0.802367
0.832116
0.862118
0.892376
0.922913
0.953764
0.984976
1.0166
1.04869
1.08132
1.11456
1.14853
1.18349
1.22031
1.26198
1.31847
1.4168
1.57069
0.285571
0.330324
0.378633
0.426494
0.472119
0.516002
0.559075
0.601946
0.644838
0.687718
0.730431
0.772791
0.810427
0.839303
0.868467
0.897919
0.927678
0.957781
0.988273
1.01921
1.05064
1.08265
1.1153
1.14874
1.18324
1.21972
1.26127
1.31799
1.41632
1.56526
0.296542
0.341429
0.389623
0.437144
0.482385
0.525992
0.568937
0.61179
0.654717
0.697641
0.740378
0.782725
0.818528
0.846509
0.874816
0.903443
0.932409
0.961747
0.991504
1.02173
1.0525
1.08387
1.11593
1.14882
1.18285
1.21898
1.26042
1.31737
1.41566
1.55971
0.307752
0.352773
0.400843
0.448012
0.492856
0.536176
0.578989
0.621821
0.664783
0.707753
0.750515
0.792854
0.826671
0.853735
0.881164
0.908948
0.937102
0.96566
0.994667
1.02418
1.05425
1.08497
1.11643
1.14877
1.18232
1.2181
1.25944
1.31661
1.41483
1.55402
0.319211
0.364366
0.412304
0.459105
0.503538
0.546565
0.589237
0.632047
0.675045
0.718062
0.760855
0.803189
0.834852
0.860977
0.887507
0.914429
0.941754
0.969515
0.997757
1.02653
1.05591
1.08596
1.1168
1.14857
1.18164
1.21707
1.2583
1.3157
1.41382
1.54819
0.330933
0.376219
0.424013
0.470433
0.514442
0.557164
0.599691
0.642476
0.68551
0.728578
0.771405
0.813738
0.843071
0.868232
0.893843
0.919883
0.946361
0.973307
1.00077
1.02879
1.05745
1.08683
1.11703
1.14823
1.18081
1.21588
1.25701
1.31463
1.41261
1.54222
0.342928
0.388342
0.435982
0.482006
0.525576
0.567984
0.610361
0.65312
0.696191
0.739311
0.782176
0.824513
0.851323
0.875498
0.900167
0.925305
0.950917
0.977031
1.00369
1.03095
1.05889
1.08757
1.11712
1.14773
1.1798
1.21452
1.25555
1.31338
1.41119
1.53608
0.355209
0.400746
0.448222
0.493833
0.536951
0.579034
0.621258
0.663988
0.707097
0.750273
0.793181
0.835527
0.859607
0.88277
0.906475
0.93069
0.955417
0.980682
1.00653
1.033
1.06019
1.08817
1.11706
1.14707
1.17863
1.21299
1.25391
1.31196
1.40955
1.52977
0.367789
0.413444
0.460744
0.505926
0.548578
0.590327
0.632391
0.675092
0.718241
0.761477
0.804432
0.846499
0.867917
0.890042
0.91276
0.936032
0.959855
0.984253
1.00927
1.03495
1.06137
1.08863
1.11685
1.14624
1.17728
1.21127
1.25209
1.31034
1.40769
1.52328
0.380681
0.42645
0.47356
0.518299
0.56047
0.601876
0.643774
0.686446
0.729637
0.772937
0.815944
0.855957
0.876247
0.897309
0.919017
0.941324
0.964224
0.987736
1.0119
1.03677
1.06241
1.08893
1.11646
1.14523
1.17574
1.20937
1.25008
1.30853
1.40559
1.51661
0.3939
0.439775
0.486685
0.530965
0.57264
0.613693
0.655424
0.698065
0.741301
0.784669
0.827734
0.865458
0.884591
0.904561
0.925236
0.946558
0.968516
0.991126
1.01442
1.03846
1.06331
1.08908
1.11591
1.14404
1.17401
1.20726
1.24787
1.3065
1.40324
1.50974
0.407462
0.453437
0.500134
0.543939
0.585105
0.625796
0.667355
0.709967
0.753251
0.796691
0.839819
0.874994
0.892938
0.911792
0.931408
0.951724
0.97272
0.994407
1.01682
1.04002
1.06406
1.08907
1.11518
1.14265
1.17208
1.20496
1.24545
1.30425
1.40064
1.50266
0.421383
0.46745
0.513922
0.557237
0.597881
0.638203
0.679586
0.72217
0.765505
0.809024
0.85222
0.884554
0.901277
0.918986
0.937521
0.956811
0.976826
0.997578
1.0191
1.04143
1.06466
1.08888
1.11426
1.14108
1.16995
1.20244
1.24282
1.30178
1.39775
1.49536
0.435681
0.481834
0.528069
0.570879
0.610986
0.650932
0.692138
0.734696
0.778088
0.821691
0.864961
0.894125
0.909596
0.926133
0.943564
0.961806
0.980828
1.00063
1.02123
1.04269
1.06508
1.08852
1.11315
1.1393
1.1676
1.1997
1.23997
1.29906
1.39459
1.48783
0.450375
0.496607
0.542595
0.584885
0.624445
0.664007
0.705036
0.747571
0.791025
0.834718
0.878068
0.903688
0.917876
0.933215
0.94952
0.966697
0.984703
1.00354
1.02322
1.0438
1.06534
1.08797
1.11185
1.13731
1.16503
1.19674
1.23688
1.2961
1.39113
1.48006
0.465489
0.511791
0.557522
0.599278
0.638279
0.677453
0.718307
0.760824
0.804346
0.848136
0.89157
0.913223
0.926097
0.940213
0.955371
0.971468
0.988445
1.0063
1.02505
1.04473
1.06542
1.08723
1.11035
1.13511
1.16225
1.19355
1.23356
1.29287
1.38737
1.47204
0.481045
0.527412
0.572874
0.614084
0.652518
0.691302
0.731983
0.774489
0.818087
0.86198
0.905502
0.922703
0.934233
0.947104
0.961097
0.976095
0.992036
1.0089
1.02671
1.04549
1.06531
1.0863
1.10864
1.1327
1.15924
1.19013
1.23
1.28938
1.38329
1.46376
0.497073
0.543497
0.588682
0.629334
0.667194
0.705587
0.7461
0.788606
0.832289
0.87629
0.919902
0.932096
0.942255
0.953859
0.966674
0.980566
0.995465
1.01134
1.02819
1.04606
1.06502
1.08517
1.10673
1.13007
1.15601
1.18648
1.22619
1.28562
1.37888
1.4552
0.513602
0.560077
0.604976
0.645062
0.682342
0.720348
0.760706
0.803221
0.846998
0.891115
0.934617
0.941361
0.950127
0.960449
0.972074
0.984852
0.998705
1.01358
1.02949
1.04645
1.06453
1.08385
1.10462
1.12724
1.15257
1.18261
1.22214
1.28157
1.37414
1.44635
0.53067
0.577187
0.621794
0.661308
0.698008
0.735635
0.77585
0.818389
0.862272
0.906508
0.945265
0.95045
0.957805
0.966837
0.977272
0.988939
1.00174
1.01563
1.03059
1.04664
1.06386
1.08234
1.10231
1.1242
1.14891
1.17851
1.21785
1.27725
1.36905
1.4372
0.548317
0.594871
0.63918
0.678118
0.714243
0.751507
0.791598
0.834179
0.878179
0.922535
0.955695
0.959305
0.965242
0.972983
0.982228
0.992795
1.00457
1.01748
1.0315
1.04666
1.063
1.08064
1.09982
1.12098
1.14506
1.17419
1.21332
1.27264
1.36361
1.42775
0.566591
0.613177
0.657186
0.695549
0.731111
0.768033
0.808026
0.850671
0.894798
0.939271
0.965827
0.967855
0.972378
0.978842
0.986918
0.996401
1.00716
1.01911
1.03222
1.04649
1.06197
1.07879
1.09717
1.11758
1.14102
1.16968
1.20856
1.26775
1.3578
1.41798
0.585553
0.632165
0.675874
0.713669
0.748687
0.7853
0.82523
0.867963
0.912226
0.956804
0.975559
0.976019
0.979148
0.984366
0.991304
0.999736
1.00952
1.02054
1.03275
1.04616
1.0608
1.0768
1.09438
1.11405
1.13683
1.165
1.20359
1.26258
1.35162
1.40787
0.60527
0.651906
0.695319
0.732563
0.767071
0.803419
0.843329
0.886177
0.930578
0.975232
0.984771
0.983699
0.985484
0.989502
0.995353
1.00279
1.01163
1.02176
1.03312
1.04569
1.05951
1.0747
1.09149
1.11041
1.13252
1.16016
1.19843
1.25714
1.34506
1.39741
0.625835
0.67249
0.715617
0.752334
0.786381
0.822525
0.862467
0.905456
0.949983
0.994663
0.993323
0.990795
0.991309
0.994205
0.999044
1.00554
1.01351
1.02281
1.03336
1.04513
1.05815
1.07254
1.08855
1.10672
1.12815
1.15524
1.19311
1.25145
1.33813
1.38657
0.647342
0.694028
0.736891
0.773128
0.806786
0.842809
0.882845
0.925994
0.97061
1.00935
1.00104
0.997169
0.99654
0.998416
1.00235
1.00801
1.01518
1.02371
1.0335
1.04452
1.05678
1.0704
1.08563
1.10304
1.12377
1.15027
1.18769
1.24553
1.33081
1.37533
0.669977
0.716677
0.759294
0.795106
0.828467
0.864469
0.904661
0.947963
0.992583
1.01745
1.00775
1.00273
1.00111
1.00212
1.00527
1.0102
1.01667
1.02452
1.03362
1.04393
1.05547
1.06835
1.08283
1.09949
1.1195
1.14536
1.18224
1.23945
1.32313
1.36365
0.693834
0.740626
0.783078
0.818587
0.851806
0.887921
0.928331
0.971733
1.0162
1.02397
1.01317
1.00726
1.00489
1.00523
1.00777
1.01211
1.018
1.02525
1.03374
1.04342
1.05429
1.06647
1.08022
1.09613
1.11542
1.14061
1.17686
1.23326
1.3151
1.3515
0.719498
0.766227
0.808471
0.843734
0.876936
0.91326
0.953858
0.997179
1.04115
1.02884
1.01734
1.01085
1.00799
1.00788
1.00998
1.01388
1.01931
1.02607
1.03404
1.04315
1.05341
1.06494
1.078
1.09319
1.11175
1.13623
1.17175
1.22715
1.30682
1.33884
0.746646
0.793784
0.836231
0.871672
0.905211
0.941935
0.982665
1.02558
1.04998
1.03092
1.01933
1.01278
1.00983
1.0096
1.01151
1.01519
1.02033
1.02676
1.03434
1.043
1.05275
1.06371
1.07615
1.09068
1.10855
1.13231
1.16702
1.22122
1.29836
1.32573
0.778184
0.824366
0.866239
0.901475
0.935125
0.971869
1.01203
1.05352
1.05067
1.03209
1.02088
1.01459
1.01179
1.01163
1.01352
1.01709
1.02205
1.02822
1.03548
1.04376
1.05307
1.06352
1.0754
1.08932
1.10654
1.12958
1.16342
1.21619
1.29027
1.31217
0.809891
0.858586
0.902585
0.939568
0.974289
1.01108
1.0499
1.06968
1.04283
1.02651
1.01698
1.01196
1.01012
1.01065
1.01305
1.01695
1.02212
1.02839
1.03565
1.04385
1.05299
1.06319
1.07475
1.08827
1.10501
1.12747
1.16047
1.21171
1.28245
1.29888
0.859713
0.899261
0.938366
0.972289
1.0039
1.03627
1.06832
1.06705
1.04379
1.02953
1.02136
1.01723
1.01596
1.01683
1.01939
1.02332
1.02841
1.0345
1.0415
1.04935
1.05809
1.06781
1.07882
1.09173
1.1078
1.12949
1.16144
1.2107
1.27708
1.2855
0.895379
0.955391
1.00577
1.04255
1.06968
1.08635
1.06085
1.03371
1.01782
1.00936
1.00556
1.00479
1.00615
1.00914
1.0134
1.01874
1.02501
1.03208
1.03991
1.04845
1.05776
1.06794
1.07929
1.09242
1.10853
1.13003
1.16135
1.20913
1.27223
1.2762
1.02684
1.01055
1.02273
1.03183
1.03636
1.04149
1.0465
1.04695
1.04303
1.03905
1.03662
1.03583
1.03648
1.03838
1.04139
1.04536
1.0502
1.0558
1.06211
1.0691
1.07681
1.08533
1.09497
1.1063
1.12051
1.13985
1.16838
1.2117
1.26679
1.25931
1.20366
1.10388
1.06212
1.05133
1.05027
1.04968
1.04289
1.03224
1.02395
1.01908
1.01697
1.01694
1.01854
1.02152
1.02565
1.0308
1.03686
1.04373
1.05136
1.05975
1.06895
1.07909
1.0905
1.10382
1.12031
1.14227
1.17372
1.21965
1.27476
1.26103
1.13109
1.10392
1.08057
1.05986
1.04612
1.04076
1.04345
1.05202
1.0635
1.07439
1.08046
1.0812
1.08041
1.08012
1.08089
1.08278
1.08573
1.08967
1.09452
1.10024
1.10683
1.11441
1.12325
1.13392
1.14758
1.16641
1.19417
1.23534
1.28381
1.2607
1.18017
1.17176
1.14757
1.12147
1.10087
1.08914
1.08648
1.09059
1.09657
1.09396
1.08826
1.08435
1.08228
1.0818
1.08269
1.0848
1.08799
1.09216
1.09721
1.10312
1.1099
1.11763
1.1266
1.13736
1.15103
1.16976
1.19721
1.23769
1.28446
1.25791
1.16813
1.17714
1.16481
1.14096
1.11736
1.10079
1.09337
1.09384
1.09971
1.10847
1.1121
1.10805
1.10553
1.1045
1.10475
1.10614
1.10855
1.11187
1.11604
1.12102
1.12682
1.13351
1.14137
1.15092
1.16328
1.18056
1.20639
1.24496
1.28907
1.25819
1.16957
1.19043
1.1866
1.1656
1.14083
1.12121
1.11022
1.1073
1.11023
1.11667
1.11803
1.11463
1.11286
1.1124
1.11305
1.11468
1.1172
1.12052
1.12459
1.12938
1.1349
1.14123
1.14863
1.15763
1.16932
1.18583
1.21079
1.2484
1.29105
1.25738
1.1658
1.19345
1.19686
1.17957
1.15518
1.13399
1.12059
1.11512
1.1157
1.12011
1.12407
1.12147
1.12031
1.12028
1.12121
1.12299
1.12553
1.12879
1.13269
1.13722
1.14239
1.14829
1.15516
1.16355
1.17454
1.19028
1.21445
1.25127
1.29272
1.25679
1.16323
1.19517
1.20403
1.1902
1.16675
1.14484
1.12983
1.12247
1.12118
1.12389
1.12693
1.12514
1.12461
1.12505
1.12632
1.12831
1.13096
1.13423
1.13806
1.14242
1.14734
1.15292
1.15939
1.1673
1.17776
1.19294
1.21658
1.25267
1.29299
1.2558
1.16043
1.19497
1.20794
1.19717
1.17492
1.15281
1.1368
1.12809
1.12538
1.12672
1.12887
1.12777
1.12779
1.12864
1.13018
1.13236
1.1351
1.13836
1.14211
1.14632
1.15102
1.1563
1.16242
1.16991
1.17993
1.19467
1.21748
1.25122
1.29242
1.25465
1.15793
1.19408
1.21016
1.202
1.18097
1.15895
1.14232
1.13265
1.12885
1.12912
1.1299
1.1294
1.12989
1.13111
1.13292
1.13526
1.13808
1.14135
1.14502
1.1491
1.1536
1.15863
1.16445
1.17161
1.18127
1.19569
1.2156
1.25032
1.29203
1.25334
1.1556
1.19273
1.21118
1.20524
1.18537
1.16357
1.14658
1.13623
1.13162
1.13106
1.13043
1.13045
1.13135
1.13289
1.13492
1.13741
1.1403
1.14357
1.14718
1.15113
1.15546
1.16027
1.16583
1.17271
1.1821
1.19372
1.21422
1.24975
1.29172
1.25194
1.15347
1.19117
1.21146
1.20741
1.18861
1.16709
1.14988
1.13904
1.13383
1.13157
1.13061
1.13106
1.13232
1.13413
1.13637
1.13898
1.14194
1.14521
1.14877
1.15262
1.15679
1.16141
1.16676
1.17341
1.1807
1.19207
1.21318
1.24939
1.29144
1.25048
1.15151
1.18952
1.21125
1.20884
1.19099
1.16976
1.15243
1.14107
1.1341
1.13113
1.13057
1.13137
1.13294
1.13499
1.13741
1.14014
1.14315
1.14642
1.14993
1.15369
1.15774
1.1622
1.16736
1.17248
1.179
1.19075
1.21238
1.24916
1.29116
1.249
1.14971
1.18783
1.21073
1.20973
1.19276
1.1718
1.15257
1.14001
1.13329
1.13062
1.13038
1.13147
1.13329
1.13556
1.13813
1.14096
1.14403
1.1473
1.15078
1.15446
1.1584
1.16273
1.16673
1.17083
1.17758
1.18967
1.21176
1.24902
1.29086
1.24752
1.14804
1.18615
1.21
1.21025
1.19406
1.17075
1.15156
1.13909
1.13253
1.13007
1.13007
1.13141
1.13345
1.1359
1.13861
1.14154
1.14465
1.14793
1.15137
1.15499
1.15885
1.16222
1.1652
1.16945
1.17639
1.18877
1.21126
1.24893
1.29055
1.24606
1.1465
1.1845
1.20913
1.21049
1.19335
1.16995
1.15075
1.1383
1.13183
1.12952
1.1297
1.13124
1.13346
1.13607
1.1389
1.1419
1.14506
1.14835
1.15177
1.15534
1.15839
1.16087
1.16391
1.16826
1.17538
1.18802
1.21086
1.24889
1.29023
1.24464
1.14508
1.18289
1.20817
1.21053
1.19263
1.16934
1.15011
1.13762
1.13118
1.12896
1.12929
1.13098
1.13336
1.13609
1.13903
1.14211
1.14531
1.14861
1.15201
1.15494
1.15721
1.15971
1.1628
1.16724
1.17451
1.18737
1.21054
1.24889
1.2899
1.24327
1.14374
1.18133
1.20716
1.21037
1.19208
1.1689
1.14961
1.13704
1.13058
1.12842
1.12885
1.13066
1.13317
1.13601
1.13903
1.14218
1.14542
1.14873
1.15176
1.15395
1.1562
1.1587
1.16183
1.16635
1.17375
1.18682
1.21029
1.24891
1.28958
1.24193
1.1425
1.17981
1.2061
1.20949
1.19166
1.1686
1.14922
1.13654
1.13003
1.12788
1.12838
1.13029
1.1329
1.13584
1.13894
1.14214
1.14541
1.14874
1.15093
1.15307
1.1553
1.15781
1.16097
1.16556
1.17308
1.18634
1.21009
1.24897
1.28925
1.24065
1.14132
1.17835
1.20503
1.20867
1.19134
1.16839
1.14893
1.13612
1.12952
1.12737
1.12791
1.12989
1.13258
1.1356
1.13877
1.14202
1.14531
1.1481
1.15019
1.15229
1.1545
1.15702
1.16021
1.16486
1.17249
1.18592
1.20993
1.24905
1.28893
1.23941
1.14022
1.17693
1.20394
1.20795
1.19111
1.16828
1.14871
1.13575
1.12906
1.12687
1.12743
1.12947
1.13222
1.1353
1.13853
1.14182
1.14514
1.14747
1.14951
1.15159
1.15379
1.1563
1.15952
1.16423
1.17196
1.18556
1.20982
1.24915
1.28861
1.23822
1.13917
1.17555
1.20286
1.20728
1.19094
1.16824
1.14856
1.13545
1.12863
1.12639
1.12695
1.12902
1.13183
1.13496
1.13823
1.14155
1.1449
1.14689
1.14889
1.15095
1.15314
1.15565
1.1589
1.16366
1.17147
1.18524
1.20974
1.24926
1.2883
1.23707
1.13817
1.17422
1.20176
1.20666
1.19081
1.16824
1.14846
1.13518
1.12824
1.12592
1.12647
1.12856
1.1314
1.13458
1.13789
1.14125
1.14438
1.14634
1.14832
1.15035
1.15253
1.15505
1.15832
1.16313
1.17104
1.18495
1.20969
1.24939
1.28799
1.23597
1.13722
1.17292
1.20068
1.20607
1.19071
1.16829
1.1484
1.13496
1.12787
1.12548
1.12599
1.12809
1.13096
1.13417
1.13752
1.1409
1.14389
1.14582
1.14777
1.14979
1.15197
1.1545
1.15779
1.16264
1.17063
1.1847
1.20967
1.24953
1.28768
1.2349
1.13631
1.17167
1.1996
1.20551
1.19065
1.16837
1.14839
1.13477
1.12754
1.12504
1.12552
1.12762
1.13051
1.13374
1.13711
1.14052
1.1434
1.14532
1.14725
1.14926
1.15144
1.15397
1.15729
1.16219
1.17026
1.18448
1.20966
1.24968
1.28738
1.23387
1.13544
1.17044
1.19854
1.20497
1.1906
1.16848
1.14841
1.13461
1.12722
1.12463
1.12506
1.12714
1.13004
1.1333
1.13669
1.14011
1.14293
1.14483
1.14676
1.14876
1.15093
1.15347
1.15681
1.16176
1.16992
1.18428
1.20968
1.24984
1.28708
1.23287
1.1346
1.16926
1.19748
1.20445
1.19056
1.16861
1.14845
1.13448
1.12692
1.12423
1.1246
1.12667
1.12957
1.13284
1.13625
1.13969
1.14246
1.14435
1.14628
1.14827
1.15045
1.153
1.15636
1.16135
1.16959
1.1841
1.20971
1.25
1.28677
1.23191
1.13379
1.16809
1.19643
1.20394
1.19054
1.16875
1.14851
1.13437
1.12665
1.12384
1.12414
1.12619
1.12909
1.13237
1.13579
1.13925
1.142
1.14389
1.14581
1.1478
1.14998
1.15255
1.15593
1.16096
1.16928
1.18393
1.20976
1.25017
1.28647
1.23097
1.13301
1.16696
1.19539
1.20343
1.19051
1.16891
1.14859
1.13428
1.1264
1.12346
1.1237
1.12572
1.12861
1.1319
1.13533
1.13879
1.14155
1.14342
1.14535
1.14735
1.14953
1.1521
1.15551
1.16059
1.16899
1.18378
1.20981
1.25034
1.28616
1.23006
1.13225
1.16586
1.19436
1.20292
1.19049
1.16907
1.14869
1.13421
1.12615
1.12309
1.12326
1.12524
1.12813
1.13142
1.13486
1.13833
1.14109
1.14297
1.14489
1.14689
1.14909
1.15168
1.15511
1.16023
1.16872
1.18365
1.20988
1.25051
1.28585
1.22918
1.13151
1.16478
1.19334
1.20242
1.19047
1.16924
1.1488
1.13415
1.12593
1.12274
1.12284
1.12478
1.12765
1.13094
1.13438
1.13786
1.14064
1.14253
1.14445
1.14645
1.14865
1.15126
1.15471
1.15988
1.16845
1.18352
1.20996
1.25068
1.28554
1.22831
1.13079
1.16372
1.19233
1.20192
1.19044
1.16941
1.14892
1.13411
1.12572
1.1224
1.12241
1.12431
1.12717
1.13045
1.1339
1.13738
1.14019
1.14208
1.14401
1.14602
1.14823
1.15085
1.15433
1.15954
1.1682
1.18341
1.21003
1.25085
1.28523
1.22747
1.13009
1.16269
1.19134
1.20142
1.19041
1.16958
1.14905
1.13408
1.12551
1.12207
1.122
1.12385
1.12669
1.12997
1.13342
1.1369
1.13974
1.14164
1.14357
1.14559
1.14781
1.15045
1.15395
1.15921
1.16795
1.18331
1.21012
1.25101
1.28491
1.22665
1.12941
1.16168
1.19035
1.20092
1.19037
1.16975
1.14918
1.13406
1.12532
1.12175
1.12159
1.1234
1.12622
1.12949
1.13293
1.13642
1.1393
1.1412
1.14314
1.14517
1.1474
1.15005
1.15359
1.15889
1.16771
1.18321
1.21021
1.25117
1.28459
1.22585
1.12875
1.16069
1.18938
1.20041
1.19033
1.16992
1.14932
1.13405
1.12515
1.12143
1.12119
1.12295
1.12575
1.12901
1.13245
1.13594
1.13885
1.14076
1.14271
1.14475
1.14699
1.14966
1.15322
1.15858
1.16748
1.18311
1.21031
1.25133
1.28427
1.22507
1.1281
1.15972
1.18842
1.19991
1.19027
1.17009
1.14947
1.13405
1.12498
1.12113
1.1208
1.12251
1.12528
1.12853
1.13197
1.13546
1.13841
1.14033
1.14229
1.14433
1.14659
1.14927
1.15286
1.15826
1.16725
1.18303
1.21041
1.25148
1.28394
1.2243
1.12746
1.15877
1.18747
1.1994
1.19021
1.17025
1.14962
1.13405
1.12482
1.12084
1.12042
1.12207
1.12481
1.12806
1.13149
1.13498
1.13797
1.1399
1.14186
1.14392
1.14618
1.14889
1.15251
1.15796
1.16703
1.18294
1.2105
1.25163
1.28361
1.22355
1.12684
1.15783
1.18652
1.19888
1.19014
1.17041
1.14977
1.13407
1.12467
1.12055
1.12004
1.12164
1.12435
1.12759
1.13101
1.1345
1.13753
1.13947
1.14144
1.14351
1.14579
1.14851
1.15216
1.15765
1.16681
1.18287
1.2106
1.25178
1.28328
1.22281
1.12623
1.15691
1.18559
1.19836
1.19007
1.17056
1.14993
1.13409
1.12453
1.12028
1.11967
1.12121
1.1239
1.12711
1.13054
1.13403
1.1371
1.13904
1.14103
1.1431
1.14539
1.14813
1.15181
1.15735
1.16659
1.18279
1.21071
1.25192
1.28294
1.22208
1.12564
1.15601
1.18467
1.19784
1.18998
1.17071
1.15008
1.13411
1.1244
1.12001
1.1193
1.12079
1.12345
1.12665
1.13007
1.13355
1.13666
1.13862
1.14061
1.1427
1.145
1.14776
1.15146
1.15706
1.16638
1.18272
1.21081
1.25205
1.28259
1.22137
1.12505
1.15512
1.18376
1.19731
1.18989
1.17085
1.15024
1.13415
1.12427
1.11974
1.11895
1.12038
1.123
1.12619
1.1296
1.13308
1.13623
1.13819
1.14019
1.1423
1.14461
1.14739
1.15112
1.15677
1.16618
1.18265
1.21091
1.25218
1.28224
1.22067
1.12448
1.15425
1.18286
1.19678
1.18978
1.17099
1.15039
1.13418
1.12415
1.11949
1.11859
1.11997
1.12256
1.12573
1.12914
1.13261
1.1358
1.13777
1.13978
1.14189
1.14422
1.14702
1.15078
1.15648
1.16597
1.18258
1.21102
1.25229
1.28189
1.21999
1.12391
1.15339
1.18196
1.19625
1.18967
1.17113
1.15055
1.13423
1.12403
1.11924
1.11825
1.11957
1.12213
1.12528
1.12867
1.13215
1.13537
1.13735
1.13937
1.1415
1.14384
1.14665
1.15045
1.15619
1.16577
1.18253
1.21112
1.25241
1.28154
1.21931
1.12336
1.15255
1.18108
1.19572
1.18955
1.17125
1.15071
1.13427
1.12393
1.119
1.11791
1.11917
1.12169
1.12483
1.12821
1.13169
1.13494
1.13693
1.13897
1.1411
1.14346
1.14629
1.15011
1.1559
1.16557
1.18246
1.21122
1.25252
1.28118
1.21864
1.12281
1.15172
1.18021
1.19518
1.18942
1.17137
1.15086
1.13432
1.12383
1.11876
1.11758
1.11878
1.12126
1.12438
1.12776
1.13122
1.13452
1.13652
1.13856
1.14071
1.14307
1.14593
1.14978
1.15562
1.16538
1.1824
1.21132
1.25262
1.28081
1.21799
1.12228
1.1509
1.17934
1.19464
1.18928
1.17148
1.15102
1.13437
1.12374
1.11854
1.11725
1.11839
1.12084
1.12394
1.12731
1.13077
1.13409
1.1361
1.13816
1.14031
1.1427
1.14557
1.14945
1.15534
1.16518
1.18235
1.21142
1.25272
1.28045
1.21734
1.12175
1.1501
1.17848
1.19409
1.18913
1.17159
1.15117
1.13443
1.12365
1.11832
1.11693
1.118
1.12042
1.1235
1.12686
1.13032
1.13368
1.13569
1.13776
1.13992
1.14232
1.14521
1.14911
1.15506
1.16499
1.18229
1.21152
1.25281
1.28008
1.2167
1.12123
1.14931
1.17764
1.19355
1.18898
1.17169
1.15132
1.13449
1.12356
1.1181
1.11662
1.11763
1.12001
1.12307
1.12642
1.12987
1.13326
1.13528
1.13736
1.13953
1.14194
1.14485
1.14879
1.15479
1.1648
1.18224
1.21162
1.2529
1.27971
1.21607
1.12072
1.14853
1.1768
1.193
1.18882
1.17179
1.15147
1.13455
1.12349
1.11789
1.11631
1.11725
1.1196
1.12264
1.12598
1.12942
1.13284
1.13488
1.13696
1.13915
1.14157
1.1445
1.14846
1.15451
1.16461
1.18219
1.21172
1.25298
1.27933
1.21544
1.12022
1.14776
1.17597
1.19245
1.18865
1.17187
1.15162
1.13462
1.12341
1.11769
1.116
1.11688
1.11919
1.12221
1.12554
1.12898
1.13243
1.13447
1.13656
1.13876
1.14119
1.14414
1.14814
1.15424
1.16443
1.18214
1.21181
1.25305
1.27895
1.21483
1.11973
1.147
1.17514
1.19184
1.18847
1.17196
1.15176
1.13468
1.12334
1.11749
1.11571
1.11652
1.11879
1.12179
1.12511
1.12854
1.132
1.13407
1.13617
1.13837
1.14082
1.14379
1.14782
1.15397
1.16425
1.18209
1.21191
1.25311
1.27857
1.21422
1.11924
1.14625
1.17433
1.19123
1.18829
1.17203
1.1519
1.13475
1.12328
1.11729
1.11542
1.11616
1.11839
1.12137
1.12468
1.12811
1.13156
1.13367
1.13578
1.13799
1.14046
1.14344
1.1475
1.1537
1.16407
1.18204
1.212
1.25318
1.27819
1.21362
1.11876
1.14551
1.17352
1.19061
1.1881
1.1721
1.15205
1.13482
1.12322
1.11711
1.11513
1.11581
1.118
1.12096
1.12425
1.12767
1.13113
1.13327
1.13539
1.13761
1.14009
1.14309
1.14718
1.15344
1.16389
1.182
1.21209
1.25323
1.2778
1.21302
1.11829
1.14478
1.17272
1.19
1.1879
1.17216
1.15218
1.13489
1.12316
1.11692
1.11485
1.11546
1.11761
1.12054
1.12383
1.12725
1.13069
1.13288
1.135
1.13724
1.13972
1.14274
1.14686
1.15317
1.16371
1.18195
1.21219
1.25328
1.27741
1.21243
1.11782
1.14407
1.17193
1.18939
1.18769
1.17222
1.15232
1.13496
1.12311
1.11675
1.11457
1.11512
1.11723
1.12014
1.12341
1.12682
1.13026
1.13248
1.13461
1.13686
1.13936
1.1424
1.14655
1.15291
1.16354
1.18191
1.21228
1.25333
1.27702
1.21185
1.11736
1.14336
1.17115
1.18877
1.18749
1.17227
1.15245
1.13504
1.12306
1.11657
1.1143
1.11477
1.11685
1.11973
1.123
1.1264
1.12984
1.13209
1.13423
1.13648
1.139
1.14205
1.14624
1.15265
1.16336
1.18186
1.21237
1.25337
1.27663
1.21127
1.11691
1.14266
1.17037
1.18816
1.18727
1.17232
1.15259
1.13512
1.12302
1.1164
1.11403
1.11444
1.11647
1.11933
1.12258
1.12598
1.12941
1.1317
1.13385
1.13611
1.13864
1.14171
1.14592
1.15238
1.16319
1.18183
1.21245
1.25341
1.27623
1.2107
1.11646
1.14197
1.1696
1.18755
1.18704
1.17236
1.15271
1.13519
1.12298
1.11624
1.11376
1.11411
1.1161
1.11894
1.12217
1.12556
1.12899
1.13131
1.13346
1.13574
1.13827
1.14137
1.14561
1.15213
1.16302
1.18179
1.21254
1.25344
1.27583
1.21013
1.11602
1.14129
1.16884
1.18694
1.18682
1.17239
1.15284
1.13527
1.12294
1.11608
1.1135
1.11378
1.11573
1.11855
1.12177
1.12515
1.12858
1.13093
1.13309
1.13537
1.13792
1.14103
1.1453
1.15187
1.16285
1.18175
1.21262
1.25346
1.27543
1.20957
1.11558
1.14062
1.16808
1.18634
1.18658
1.17242
1.15296
1.13535
1.12291
1.11592
1.11325
1.11346
1.11536
1.11816
1.12137
1.12474
1.12816
1.13054
1.13271
1.135
1.13756
1.1407
1.145
1.15162
1.16269
1.18171
1.2127
1.25348
1.27503
1.20902
1.11515
1.13995
1.16733
1.18573
1.18634
1.17244
1.15308
1.13543
1.12288
1.11577
1.113
1.11314
1.115
1.11777
1.12097
1.12433