/*--------------------------------*- C++ -*----------------------------------*\
  =========                 |
  \\      /  F ield         | OpenFOAM: The Open Source CFD Toolbox
   \\    /   O peration     | Website:  https://openfoam.org
    \\  /    A nd           | Version:  8
     \\/     M anipulation  |
\*---------------------------------------------------------------------------*/
FoamFile
{
    version     2.0;
    format      ascii;
    class       volScalarField;
    location    "1.2";
    object      Ca5;
}
// * * * * * * * * * * * * * * * * * * * * * * * * * * * * * * * * * * * * * //

dimensions      [0 0 0 0 0 0 0];

internalField   nonuniform List<scalar> 
6300
(
0.0442816
0.169699
0.268352
0.34648
0.414063
0.477185
0.540326
0.605721
0.673933
0.744739
0.817716
0.892459
0.968652
1.04604
1.12444
1.2037
1.28372
1.36441
1.44572
1.52762
1.61008
1.69309
1.77665
1.8608
1.94559
2.03139
2.12001
2.22094
2.38205
2.88111
0.085978
0.211632
0.309371
0.390281
0.459897
0.524261
0.58819
0.6541
0.722577
0.793371
0.866023
0.940134
1.0154
1.09157
1.16849
1.24602
1.32407
1.40256
1.48144
1.56068
1.64026
1.72015
1.80034
1.88085
1.96168
2.04314
2.12706
2.2231
2.38075
2.86645
0.0943153
0.209454
0.313285
0.405798
0.484483
0.553542
0.619124
0.685328
0.753872
0.824945
0.898111
0.972848
1.04873
1.12542
1.20269
1.28036
1.35829
1.43638
1.51459
1.59285
1.67115
1.74948
1.82786
1.90633
1.98498
2.06419
2.14584
2.23931
2.39216
2.86457
0.111004
0.215192
0.317628
0.414213
0.498978
0.572959
0.641195
0.708486
0.777422
0.848685
0.922003
0.996867
1.07282
1.1495
1.22665
1.30407
1.3816
1.45906
1.53607
1.61249
1.6888
1.76509
1.84138
1.91764
1.9939
2.0705
2.14951
2.24093
2.39398
2.85589
0.128303
0.224853
0.323591
0.419931
0.506813
0.583368
0.653412
0.721535
0.790635
0.861717
0.934705
1.00917
1.08469
1.16092
1.2376
1.31454
1.39157
1.46858
1.54462
1.61996
1.69532
1.77071
1.84611
1.9215
1.9969
2.07264
2.15088
2.24191
2.39597
2.84869
0.145194
0.236589
0.332162
0.427419
0.51517
0.593464
0.665062
0.734112
0.803575
0.874661
0.947453
1.02162
1.09676
1.17257
1.24879
1.32523
1.40174
1.47821
1.55259
1.62697
1.7014
1.77587
1.85037
1.92488
1.99941
2.07435
2.15192
2.24277
2.39806
2.84159
0.161704
0.249428
0.342551
0.436578
0.524493
0.603852
0.676645
0.746555
0.816446
0.887635
0.960323
1.03425
1.10908
1.1845
1.26028
1.33624
1.41223
1.48683
1.5602
1.63363
1.70713
1.78069
1.8543
1.92794
2.00166
2.07586
2.15284
2.24369
2.40025
2.83455
0.177897
0.262832
0.354064
0.446936
0.534654
0.614601
0.688269
0.758908
0.829225
0.900561
0.973199
1.04694
1.12149
1.19655
1.27192
1.34741
1.42289
1.49522
1.56763
1.64012
1.71269
1.78534
1.85807
1.93087
2.00379
2.07728
2.15376
2.24468
2.40247
2.82751
0.193841
0.27657
0.366322
0.458176
0.54553
0.625757
0.700043
0.771282
0.841994
0.913495
0.986116
1.05971
1.134
1.20874
1.28371
1.35876
1.43212
1.50348
1.57493
1.64647
1.71811
1.78986
1.86171
1.93368
2.00584
2.07864
2.15467
2.24573
2.40469
2.82045
0.209596
0.29055
0.379123
0.470093
0.557011
0.637323
0.712034
0.783756
0.854819
0.926491
0.999118
1.07259
1.14665
1.22108
1.29568
1.37029
1.44122
1.51161
1.58209
1.65268
1.72339
1.79424
1.86523
1.93639
2.00779
2.07996
2.15558
2.24683
2.40687
2.81335
0.225213
0.304735
0.392355
0.482552
0.569006
0.649279
0.724271
0.79638
0.867753
0.939589
1.01223
1.0856
1.15946
1.2336
1.30783
1.38089
1.45023
1.51963
1.58914
1.65878
1.72856
1.79851
1.86865
1.939
2.00968
2.08122
2.15646
2.24794
2.409
2.80618
0.240741
0.319115
0.405955
0.495468
0.58145
0.661597
0.73677
0.809182
0.880828
0.952816
1.02549
1.09876
1.17243
1.24629
1.32017
1.39082
1.45914
1.52755
1.59608
1.66476
1.73361
1.80267
1.87196
1.94152
2.01147
2.08242
2.1573
2.24904
2.41103
2.79896
0.256225
0.333693
0.41989
0.508785
0.594291
0.67426
0.749535
0.822186
0.894064
0.966196
1.03889
1.11208
1.18557
1.25917
1.33271
1.40067
1.46798
1.53538
1.60292
1.67063
1.73856
1.80672
1.87517
1.94394
2.01318
2.08354
2.15809
2.2501
2.41296
2.79165
0.271709
0.348474
0.434138
0.522467
0.607498
0.687243
0.762561
0.835404
0.907482
0.979743
1.05247
1.12558
1.1989
1.27224
1.34429
1.41048
1.47675
1.54313
1.60967
1.67641
1.7434
1.81067
1.87827
1.94626
2.0148
2.08458
2.15881
2.25112
2.41476
2.78426
0.287233
0.363469
0.44869
0.53649
0.621044
0.700536
0.775851
0.848842
0.921095
0.993473
1.06622
1.13926
1.21242
1.28551
1.35512
1.42025
1.48546
1.5508
1.61634
1.6821
1.74814
1.81452
1.88128
1.94848
2.01632
2.08553
2.15946
2.25207
2.41643
2.77677
0.302835
0.378691
0.46354
0.550837
0.63491
0.714124
0.789402
0.862509
0.934913
1.0074
1.08017
1.15315
1.22614
1.29899
1.36594
1.42997
1.49411
1.55841
1.62292
1.68769
1.75278
1.81826
1.88417
1.9506
2.01773
2.08637
2.16002
2.25294
2.41795
2.76918
0.318552
0.394151
0.478685
0.565499
0.649086
0.728002
0.803213
0.876409
0.948944
1.02153
1.09432
1.16723
1.24008
1.31269
1.37675
1.43967
1.50271
1.56594
1.62942
1.69319
1.75733
1.8219
1.88695
1.95259
2.01902
2.0871
2.16046
2.25372
2.41932
2.76148
0.334415
0.409863
0.49413
0.58047
0.663564
0.742161
0.817284
0.890545
0.963199
1.03587
1.10869
1.18154
1.25423
1.3259
1.38756
1.44934
1.51127
1.57342
1.63584
1.69861
1.76178
1.82542
1.88961
1.95446
2.02019
2.08771
2.1608
2.25439
2.42052
2.75365
0.350457
0.425841
0.509875
0.595747
0.678337
0.756602
0.831615
0.904923
0.97768
1.05043
1.12327
1.19606
1.26861
1.3379
1.39837
1.45898
1.51978
1.58083
1.64219
1.70393
1.76612
1.82883
1.89216
1.9562
2.02122
2.08817
2.16101
2.25495
2.42154
2.74571
0.366705
0.442096
0.525926
0.61133
0.693404
0.771317
0.846206
0.919548
0.992399
1.06523
1.13809
1.21082
1.28323
1.34994
1.40919
1.46861
1.52825
1.58818
1.64846
1.70916
1.77035
1.83213
1.89457
1.9578
2.0221
2.08849
2.16108
2.25538
2.42236
2.73763
0.383188
0.458643
0.542288
0.62722
0.708765
0.786312
0.86106
0.934424
1.00736
1.08026
1.15314
1.22582
1.29809
1.36201
1.42
1.47821
1.53668
1.59547
1.65464
1.71429
1.77448
1.8353
1.89685
1.95926
2.02282
2.08865
2.16099
2.25567
2.42299
2.72941
0.39993
0.475496
0.558967
0.643419
0.724422
0.801589
0.876182
0.949555
1.02257
1.09554
1.16844
1.24107
1.31321
1.37411
1.43083
1.4878
1.54506
1.60269
1.66075
1.71932
1.77849
1.83834
1.89898
1.96055
2.02338
2.08864
2.16075
2.2558
2.4234
2.72104
0.416954
0.49267
0.575973
0.659936
0.740377
0.817148
0.891575
0.96495
1.03804
1.11108
1.184
1.25658
1.32859
1.38625
1.44166
1.49736
1.55341
1.60985
1.66677
1.72425
1.78237
1.84124
1.90096
1.96167
2.02377
2.08845
2.16034
2.25577
2.42359
2.7125
0.434285
0.510177
0.593314
0.676773
0.756636
0.832997
0.907248
0.980615
1.05377
1.12688
1.19983
1.27236
1.34425
1.39843
1.4525
1.50691
1.5617
1.61694
1.6727
1.72907
1.78613
1.84399
1.90277
1.96263
2.02396
2.08807
2.15975
2.25556
2.42354
2.7038
0.451942
0.528032
0.611
0.693938
0.773206
0.849143
0.923204
0.996557
1.06978
1.14296
1.21593
1.28843
1.35832
1.41064
1.46335
1.51644
1.56996
1.62397
1.67854
1.73378
1.78976
1.84659
1.9044
1.96339
2.02396
2.08749
2.15895
2.25516
2.42326
2.69492
0.469947
0.54625
0.629042
0.711441
0.790096
0.865591
0.939453
1.01279
1.08607
1.15932
1.23233
1.30479
1.37203
1.4229
1.4742
1.52594
1.57816
1.63091
1.68429
1.73836
1.79324
1.84903
1.90587
1.96396
2.02375
2.0867
2.15796
2.25455
2.4227
2.68584
0.488319
0.564845
0.647454
0.729294
0.807312
0.882351
0.956004
1.02931
1.10266
1.17598
1.24902
1.32145
1.38581
1.43519
1.48506
1.53542
1.58631
1.63778
1.68992
1.74282
1.79657
1.8513
1.90714
1.96431
2.02332
2.08568
2.15674
2.25373
2.42187
2.67656
0.50708
0.583835
0.666245
0.747505
0.824866
0.899434
0.972868
1.04615
1.11955
1.19295
1.26603
1.33844
1.39966
1.44751
1.49592
1.54487
1.5944
1.64456
1.69545
1.74714
1.79975
1.85338
1.90821
1.96445
2.02265
2.08443
2.1553
2.25268
2.42075
2.66707
0.526248
0.603233
0.685432
0.76609
0.842771
0.916849
0.990057
1.0633
1.13676
1.21024
1.28336
1.35576
1.41359
1.45987
1.50677
1.55428
1.60242
1.65126
1.70086
1.75132
1.80275
1.85528
1.90907
1.96436
2.02174
2.08293
2.15361
2.25138
2.41933
2.65734
0.545844
0.623057
0.705029
0.785058
0.861038
0.934613
1.00758
1.08078
1.15431
1.22787
1.30104
1.37343
1.42758
1.47225
1.51762
1.56365
1.61038
1.65785
1.70614
1.75534
1.80558
1.85697
1.9097
1.96403
2.02058
2.08117
2.15167
2.24982
2.4176
2.64737
0.565887
0.643325
0.725052
0.804429
0.879684
0.952736
1.02546
1.09862
1.17221
1.24585
1.31908
1.39147
1.44163
1.48466
1.52845
1.57298
1.61825
1.66433
1.71129
1.75921
1.80822
1.85846
1.9101
1.96345
2.01915
2.07913
2.14945
2.24798
2.41552
2.63715
0.586398
0.664055
0.745519
0.824219
0.898722
0.971238
1.0437
1.11682
1.19047
1.2642
1.3375
1.4099
1.45574
1.49708
1.53926
1.58225
1.62605
1.6707
1.71629
1.7629
1.81067
1.85972
1.91025
1.96259
2.01744
2.07681
2.14695
2.24585
2.41309
2.62665
0.607398
0.685266
0.766449
0.844443
0.918173
0.990134
1.06234
1.1354
1.20912
1.28295
1.35632
1.42873
1.46991
1.50952
1.55005
1.59146
1.63374
1.67694
1.72114
1.76641
1.8129
1.86074
1.91015
1.96146
2.01543
2.07418
2.14415
2.24341
2.4103
2.61587
0.62891
0.70698
0.787861
0.865121
0.938055
1.00945
1.08137
1.15439
1.22817
1.30211
1.37556
1.44749
1.48412
1.52195
1.5608
1.60059
1.64133
1.68305
1.72582
1.76973
1.81491
1.86153
1.90978
1.96004
2.01311
2.07125
2.14104
2.24065
2.40712
2.60478
0.650955
0.729218
0.809776
0.886279
0.95839
1.02919
1.10084
1.17381
1.24766
1.3217
1.39525
1.46367
1.49836
1.53438
1.5715
1.60964
1.6488
1.689
1.73032
1.77285
1.8167
1.86205
1.90912
1.95832
2.01049
2.06799
2.1376
2.23755
2.40353
2.59337
0.67356
0.752005
0.832219
0.907937
0.979201
1.0494
1.12076
1.19367
1.26761
1.34176
1.41541
1.47991
1.51263
1.54678
1.58213
1.61859
1.65614
1.6948
1.73464
1.77574
1.81824
1.86231
1.90818
1.95628
2.00753
2.06439
2.13382
2.23409
2.39951
2.58162
0.696751
0.775366
0.855216
0.930122
1.00051
1.0701
1.14116
1.21403
1.28804
1.36232
1.43607
1.49622
1.5269
1.55914
1.59269
1.62742
1.66333
1.70041
1.73874
1.77841
1.81952
1.86228
1.90693
1.95391
2.00423
2.06045
2.12969
2.23024
2.39505
2.56952
0.720555
0.799329
0.878795
0.952862
1.02236
1.09131
1.16208
1.23489
1.309
1.38341
1.45728
1.51257
1.54116
1.57144
1.60314
1.63612
1.67035
1.70583
1.74263
1.78082
1.82054
1.86196
1.90536
1.95122
2.00058
2.05614
2.12519
2.22601
2.39013
2.55703
0.745004
0.823924
0.902986
0.976189
1.04477
1.11308
1.18354
1.25631
1.33051
1.40507
1.47906
1.52893
1.55539
1.58367
1.61347
1.64467
1.67719
1.71105
1.74628
1.78298
1.82127
1.86134
1.90347
1.94817
1.99656
2.05145
2.12031
2.22136
2.38472
2.54416
0.770131
0.849186
0.927825
1.00014
1.06779
1.13544
1.20559
1.27833
1.35263
1.42735
1.50147
1.54528
1.56955
1.59578
1.62366
1.65303
1.68382
1.71603
1.74968
1.78487
1.82171
1.8604
1.90124
1.94477
1.99218
2.04639
2.11503
2.21629
2.37881
2.53087
0.795975
0.875151
0.953349
1.02475
1.09144
1.15843
1.22829
1.30099
1.37541
1.45029
1.52456
1.56159
1.5836
1.60774
1.63366
1.66119
1.69022
1.72075
1.7528
1.78646
1.82184
1.85914
1.89867
1.94101
1.98741
2.04094
2.10935
2.21078
2.37237
2.51715
0.822576
0.901863
0.979602
1.05007
1.11579
1.18211
1.25167
1.32436
1.39891
1.47396
1.54839
1.5778
1.59752
1.61952
1.64345
1.6691
1.69636
1.7252
1.75564
1.78776
1.82165
1.85754
1.89575
1.93689
1.98228
2.0351
2.10326
2.20481
2.3654
2.50299
0.849983
0.929367
1.00663
1.07615
1.14088
1.20654
1.27581
1.3485
1.42319
1.49844
1.57301
1.59386
1.61123
1.63108
1.65299
1.67674
1.70222
1.72937
1.75819
1.78874
1.82115
1.85561
1.89248
1.93239
1.97676
2.02886
2.09675
2.19837
2.35786
2.48835
0.878248
0.957718
1.03449
1.10304
1.16679
1.23178
1.30079
1.37349
1.44835
1.52378
1.59817
1.60971
1.62469
1.64235
1.66222
1.68407
1.70776
1.7332
1.7604
1.7894
1.82032
1.85335
1.88887
1.92755
1.97086
2.02223
2.08983
2.19146
2.34975
2.47322
0.907432
0.986976
1.06325
1.13082
1.19358
1.25792
1.32668
1.39943
1.47446
1.55011
1.61638
1.62525
1.63782
1.65327
1.67111
1.69106
1.71296
1.73671
1.76229
1.78974
1.81917
1.85077
1.88493
1.92236
1.96462
2.01522
2.08249
2.18407
2.34104
2.45758
0.937608
1.01722
1.09298
1.15957
1.22134
1.28506
1.35361
1.42643
1.50167
1.57751
1.63422
1.64039
1.65054
1.66378
1.67959
1.69766
1.71779
1.73986
1.76384
1.78976
1.8177
1.84787
1.88067
1.91684
1.95802
2.00784
2.07474
2.17619
2.33173
2.44142
0.968858
1.04852
1.12377
1.18937
1.25018
1.31332
1.38171
1.45463
1.53008
1.60613
1.65154
1.65501
1.66274
1.6738
1.68761
1.70382
1.72222
1.74266
1.76507
1.78948
1.81595
1.84471
1.87613
1.91104
1.95111
2.00013
2.06661
2.16782
2.3218
2.42471
1.00128
1.08099
1.15573
1.22036
1.28024
1.34284
1.41112
1.4842
1.55988
1.63611
1.66818
1.66897
1.67432
1.68324
1.69511
1.70952
1.72625
1.7451
1.76598
1.78891
1.81395
1.84129
1.87137
1.905
1.94395
1.99212
2.05811
2.15898
2.31123
2.40742
1.035
1.11474
1.18898
1.25266
1.31167
1.37383
1.44207
1.51534
1.59127
1.66762
1.68394
1.6821
1.68515
1.69202
1.70203
1.71475
1.72986
1.74719
1.76662
1.78811
1.81174
1.83771
1.86642
1.89877
1.93658
1.98385
2.04928
2.14968
2.30003
2.38954
1.07016
1.14994
1.22369
1.28647
1.34469
1.4065
1.4748
1.54831
1.62445
1.70085
1.69856
1.69424
1.69512
1.70007
1.70834
1.71945
1.73308
1.74898
1.76702
1.78715
1.80942
1.83402
1.8614
1.89246
1.92911
1.97543
2.04019
2.13994
2.28817
2.37101
1.10694
1.18677
1.26007
1.32203
1.37958
1.44118
1.50964
1.58343
1.65972
1.72597
1.71175
1.70514
1.70406
1.70727
1.71399
1.72366
1.73593
1.75052
1.76726
1.7861
1.80706
1.83036
1.85641
1.88618
1.92163
1.96693
2.03092
2.12983
2.27566
2.35178
1.14564
1.2255
1.29837
1.35961
1.41666
1.47822
1.54695
1.62099
1.69729
1.73982
1.72323
1.71464
1.71187
1.71361
1.71899
1.72742
1.73849
1.7519
1.76746
1.78509
1.80483
1.82685
1.85161
1.88009
1.91432
1.95854
2.0216
2.11943
2.26252
2.33181
1.18644
1.26645
1.33904
1.39976
1.45657
1.51832
1.58742
1.66164
1.73767
1.75096
1.7325
1.72239
1.71834
1.71893
1.72326
1.73069
1.74075
1.75315
1.76767
1.78422
1.80281
1.82363
1.84714
1.87436
1.90734
1.95041
2.0124
2.10885
2.24878
2.31104
1.23032
1.31023
1.38247
1.44276
1.49954
1.56165
1.63107
1.70515
1.78033
1.75929
1.73962
1.72853
1.72364
1.72346
1.72704
1.73372
1.743
1.75456
1.76819
1.78377
1.80131
1.82102
1.84335
1.86932
1.90106
1.94292
2.00366
2.0984
2.23463
2.28939
1.27675
1.35735
1.42993
1.49054
1.54789
1.61069
1.68033
1.75372
1.79544
1.76284
1.74304
1.73183
1.72678
1.72639
1.72967
1.73595
1.74475
1.75574
1.76869
1.7835
1.80018
1.81891
1.84019
1.86503
1.89559
1.93622
1.99558
2.08826
2.22017
2.26696
1.33068
1.40965
1.48125
1.5415
1.59904
1.66187
1.73054
1.8015
1.79662
1.76485
1.74567
1.73492
1.73014
1.72986
1.7331
1.73919
1.74768
1.75823
1.77065
1.7848
1.80073
1.8186
1.83892
1.86272
1.89215
1.93156
1.98943
2.07966
2.20634
2.24378
1.38489
1.46816
1.5434
1.60664
1.66601
1.72892
1.7953
1.82912
1.78322
1.75531
1.73901
1.73043
1.72727
1.72819
1.73229
1.73897
1.74781
1.75853
1.77094
1.78495
1.80058
1.81803
1.8378
1.86092
1.88954
1.92795
1.98438
2.07199
2.19296
2.22106
1.47009
1.53771
1.60458
1.66259
1.71665
1.77199
1.82681
1.82464
1.78485
1.76047
1.7465
1.73944
1.73727
1.73876
1.74313
1.74985
1.75856
1.76898
1.78094
1.79437
1.8093
1.82593
1.84475
1.86684
1.89431
1.9314
1.98603
2.07027
2.18377
2.19817
1.53108
1.63369
1.71984
1.78274
1.82912
1.85762
1.81403
1.76762
1.74044
1.72599
1.71948
1.71816
1.7205
1.7256
1.7329
1.74203
1.75274
1.76483
1.77822
1.79283
1.80874
1.82615
1.84556
1.86801
1.89557
1.93232
1.98588
2.06759
2.17549
2.18228
1.75588
1.72802
1.74885
1.7644
1.77215
1.78092
1.7895
1.79026
1.78355
1.77675
1.7726
1.77124
1.77235
1.77561
1.78075
1.78754
1.79581
1.80539
1.81618
1.82814
1.84131
1.85589
1.87237
1.89175
1.91605
1.94912
1.99791
2.07198
2.16619
2.15339
2.05824
1.88761
1.81621
1.79775
1.79593
1.79492
1.78331
1.76511
1.75092
1.74261
1.739
1.73893
1.74169
1.74677
1.75384
1.76265
1.773
1.78475
1.7978
1.81215
1.82788
1.84522
1.86473
1.88751
1.9157
1.95325
2.00703
2.08557
2.1798
2.15633
1.93414
1.88768
1.84775
1.81234
1.78884
1.77967
1.78427
1.79893
1.81856
1.83718
1.84757
1.84883
1.84747
1.84699
1.84829
1.85152
1.85657
1.86331
1.8716
1.88138
1.89265
1.90562
1.92073
1.93897
1.96233
1.99454
2.04201
2.1124
2.19528
2.15577
2.01806
2.00368
1.96232
1.91769
1.88245
1.8624
1.85786
1.86488
1.8751
1.87065
1.8609
1.85421
1.85067
1.84985
1.85138
1.85498
1.86044
1.86756
1.87621
1.88631
1.89789
1.91113
1.92646
1.94486
1.96823
2.00026
2.04719
2.11641
2.19639
2.151
1.99747
2.01288
1.9918
1.95101
1.91065
1.88233
1.86964
1.87044
1.88047
1.89546
1.90166
1.89474
1.89043
1.88866
1.88909
1.89147
1.89559
1.90127
1.90841
1.91692
1.92683
1.93828
1.95171
1.96805
1.98919
2.01873
2.0629
2.12886
2.20428
2.15147
1.99994
2.03561
2.02905
1.99315
1.95078
1.91725
1.89844
1.89346
1.89847
1.90949
1.9118
1.90599
1.90297
1.90218
1.90328
1.90607
1.91038
1.91607
1.92303
1.93122
1.94065
1.95148
1.96413
1.97951
1.99951
2.02774
2.07042
2.13473
2.20766
2.15009
1.99349
2.04077
2.0466
2.01703
1.97532
1.9391
1.91618
1.90683
1.90783
1.91536
1.92214
1.9177
1.91571
1.91565
1.91724
1.92028
1.92464
1.9302
1.93688
1.94462
1.95346
1.96355
1.9753
1.98963
2.00843
2.03535
2.07669
2.13965
2.21052
2.14908
1.98909
2.04371
2.05887
2.03521
1.99512
1.95764
1.93198
1.9194
1.91719
1.92182
1.92703
1.92397
1.92306
1.92381
1.92597
1.92938
1.93392
1.9395
1.94605
1.95351
1.96193
1.97146
1.98253
1.99605
2.01394
2.03989
2.08033
2.14203
2.21098
2.14738
1.98431
2.04337
2.06555
2.04713
2.00909
1.97127
1.9439
1.929
1.92437
1.92666
1.93034
1.92846
1.92849
1.92994
1.93259
1.93631
1.941
1.94658
1.95299
1.96018
1.96822
1.97725
1.9877
2.00053
2.01765
2.04286
2.08187
2.13955
2.21001
2.14542
1.98004
2.04185
2.06935
2.05539
2.01944
1.98177
1.95334
1.9368
1.93031
1.93077
1.9321
1.93125
1.93209
1.93417
1.93726
1.94127
1.9461
1.95167
1.95796
1.96494
1.97264
1.98124
1.99117
2.00342
2.01995
2.04461
2.07865
2.13801
2.20934
2.14318
1.97605
2.03955
2.07109
2.06093
2.02696
1.98967
1.96062
1.94292
1.93505
1.93408
1.93301
1.93303
1.93459
1.93721
1.94069
1.94495
1.94989
1.95547
1.96165
1.96841
1.97581
1.98404
1.99354
2.00531
2.02137
2.04123
2.07628
2.13704
2.20881
2.14078
1.97241
2.03688
2.07157
2.06465
2.0325
1.99569
1.96627
1.94773
1.93883
1.93495
1.93332
1.93408
1.93624
1.93933
1.94317
1.94764
1.95269
1.95828
1.96436
1.97094
1.97808
1.98599
1.99512
2.00651
2.01897
2.03841
2.07451
2.13642
2.20834
2.13828
1.96906
2.03404
2.07121
2.06708
2.03657
2.00027
1.97063
1.9512
1.93928
1.9342
1.93325
1.93462
1.9373
1.94081
1.94495
1.94961
1.95475
1.96034
1.96635
1.97278
1.9797
1.98734
1.99616
2.00492
2.01606
2.03616
2.07315
2.13604
2.20785
2.13575
1.96597
2.03116
2.07032
2.06861
2.03959
2.00375
1.97087
1.94939
1.9379
1.93333
1.93291
1.93478
1.93791
1.94178
1.94618
1.95102
1.95626
1.96186
1.9678
1.9741
1.98084
1.98824
1.99507
2.0021
2.01364
2.03431
2.07208
2.13579
2.20734
2.13323
1.96313
2.02829
2.06907
2.06949
2.04182
2.00196
1.96915
1.94782
1.9366
1.9324
1.9324
1.93469
1.93818
1.94236
1.947
1.952
1.95732
1.96293
1.96882
1.97501
1.9816
1.98737
1.99247
1.99973
2.0116
2.03277
2.07122
2.13564
2.20681
2.13074
1.9605
2.02547
2.06759
2.06991
2.0406
2.00058
1.96776
1.94646
1.9354
1.93145
1.93177
1.93439
1.9382
1.94265
1.94749
1.95263
1.95803
1.96365
1.9695
1.9756
1.98081
1.98506
1.99026
1.9977
2.00987
2.03148
2.07054
2.13557
2.20626
2.12831
1.95805
2.02272
2.06595
2.06998
2.03936
1.99955
1.96667
1.94531
1.93428
1.9305
1.93105
1.93395
1.93802
1.94269
1.94771
1.95298
1.95845
1.96409
1.96991
1.97492
1.97881
1.98307
1.98835
1.99595
2.00839
2.03038
2.07
2.13557
2.2057
2.12595
1.95577
2.02004
2.06421
2.06971
2.03842
1.9988
1.9658
1.94431
1.93326
1.92956
1.9303
1.9334
1.93769
1.94255
1.94772
1.9531
1.95863
1.96429
1.96948
1.97322
1.97707
1.98134
1.98669
1.99443
2.00709
2.02943
2.06956
2.13561
2.20514
2.12368
1.95364
2.01746
2.06241
2.06819
2.0377
1.99827
1.96514
1.94346
1.93232
1.92865
1.92951
1.93277
1.93724
1.94226
1.94757
1.95304
1.95862
1.96432
1.96806
1.97172
1.97554
1.97982
1.98523
1.99308
2.00595
2.02861
2.06922
2.1357
2.20459
2.12148
1.95164
2.01495
2.06057
2.0668
2.03717
1.99793
1.96464
1.94274
1.93146
1.92777
1.9287
1.93209
1.93669
1.94185
1.94727
1.95282
1.95846
1.96323
1.96679
1.97039
1.97417
1.97847
1.98393
1.99189
2.00492
2.0279
2.06896
2.13584
2.20404
2.11937
1.94975
2.01252
2.05871
2.06556
2.03676
1.99773
1.96426
1.94211
1.93066
1.92692
1.92788
1.93136
1.93607
1.94133
1.94685
1.95248
1.95817
1.96215
1.96564
1.96919
1.97295
1.97724
1.98276
1.99081
2.00402
2.02727
2.06876
2.13601
2.2035
2.11733
1.94795
2.01017
2.05685
2.06442
2.03647
1.99765
1.96401
1.94159
1.92993
1.9261
1.92705
1.9306
1.9354
1.94075
1.94634
1.95203
1.95775
1.96115
1.96458
1.96809
1.97183
1.97614
1.98168
1.98983
2.00319
2.02673
2.06862
2.1362
2.20296
2.11537
1.94625
2.00789
2.05499
2.06336
2.03625
1.99767
1.96384
1.94114
1.92926
1.9253
1.92623
1.92981
1.93467
1.9401
1.94576
1.95151
1.95687
1.96021
1.9636
1.96707
1.9708
1.97511
1.9807
1.98892
2.00244
2.02624
2.06854
2.13642
2.20243
2.11348
1.94462
2.00567
2.05314
2.06235
2.03609
1.99775
1.96374
1.94075
1.92864
1.92454
1.92542
1.92901
1.93392
1.93941
1.94512
1.95091
1.95602
1.95932
1.96267
1.96612
1.96983
1.97416
1.97979
1.98809
2.00176
2.02581
2.0685
2.13667
2.20191
2.11165
1.94307
2.00352
2.0513
2.0614
2.03598
1.99789
1.96372
1.94043
1.92806
1.9238
1.92462
1.9282
1.93314
1.93868
1.94443
1.95027
1.95519
1.95846
1.96178
1.96521
1.96893
1.97327
1.97893
1.98731
2.00112
2.02543
2.06849
2.13692
2.20139
2.10989
1.94158
2.00143
2.04947
2.06048
2.0359
1.99807
1.96375
1.94016
1.92752
1.92309
1.92382
1.92738
1.93234
1.93791
1.94371
1.94957
1.95438
1.95762
1.96093
1.96435
1.96806
1.97241
1.97811
1.98658
2.00053
2.02509
2.06852
2.13719
2.20087
2.10819
1.94014
1.9994
2.04765
2.05957
2.03584
1.99829
1.96382
1.93993
1.92701
1.9224
1.92303
1.92657
1.93154
1.93713
1.94296
1.94884
1.95359
1.95681
1.96011
1.96352
1.96724
1.9716
1.97735
1.98588
1.99997
2.02478
2.06857
2.13747
2.20035
2.10654
1.93875
1.99741
2.04586
2.0587
2.03579
1.99854
1.96393
1.93975
1.92655
1.92174
1.92226
1.92576
1.93072
1.93633
1.94218
1.94809
1.9528
1.95602
1.9593
1.96272
1.96644
1.97083
1.97661
1.98521
1.99945
2.0245
2.06865
2.13776
2.19983
2.10493
1.93741
1.99548
2.04408
2.05783
2.03575
1.9988
1.96406
1.9396
1.92611
1.92109
1.9215
1.92495
1.9299
1.93552
1.94139
1.94731
1.95202
1.95523
1.95851
1.96194
1.96566
1.97007
1.97589
1.98458
1.99895
2.02424
2.06875
2.13805
2.1993
2.10338
1.93611
1.99359
2.04232
2.05697
2.03571
1.99908
1.96423
1.93947
1.92569
1.92046
1.92075
1.92414
1.92907
1.9347
1.94058
1.94652
1.95124
1.95445
1.95774
1.96116
1.96491
1.96934
1.97521
1.98397
1.99848
2.02401
2.06886
2.13834
2.19878
2.10186
1.93485
1.99174
2.04059
2.05612
2.03567
1.99937
1.96442
1.93937
1.92531
1.91986
1.92002
1.92334
1.92826
1.93388
1.93976
1.94571
1.95047
1.95369
1.95698
1.96041
1.96417
1.96862
1.97453
1.98337
1.99803
2.0238
2.069
2.13863
2.19825
2.10039
1.93362
1.98994
2.03886
2.05526
2.03562
1.99965
1.96462
1.9393
1.92495
1.91928
1.9193
1.92255
1.92743
1.93305
1.93894
1.9449
1.9497
1.95293
1.95622
1.95967
1.96344
1.96793
1.97387
1.98279
1.99759
2.0236
2.06913
2.13892
2.19771
2.09895
1.93243
1.98817
2.03716
2.0544
2.03557
1.99995
1.96484
1.93924
1.9246
1.91871
1.91859
1.92176
1.92661
1.93223
1.93812
1.94408
1.94894
1.95218
1.95548
1.95893
1.96273
1.96723
1.97323
1.98223
1.99717
2.02343
2.06928
2.1392
2.19717
2.09755
1.93127
1.98644
2.03547
2.05354
2.03551
2.00025
1.96508
1.93921
1.92428
1.91816
1.91789
1.92099
1.9258
1.9314
1.93729
1.94326
1.94818
1.95142
1.95474
1.95822
1.96202
1.96656
1.9726
1.98168
1.99675
2.02325
2.06943
2.13948
2.19662
2.09618
1.93013
1.98475
2.03381
2.05268
2.03543
2.00054
1.96532
1.93919
1.92398
1.91763
1.91721
1.92022
1.925
1.93058
1.93646
1.94243
1.94741
1.95068
1.95401
1.9575
1.96133
1.96589
1.97198
1.98114
1.99636
2.0231
2.06959
2.13975
2.19607
2.09484
1.92902
1.98309
2.03217
2.05181
2.03534
2.00082
1.96557
1.93919
1.92369
1.91711
1.91654
1.91946
1.9242
1.92976
1.93564
1.94162
1.94665
1.94993
1.95328
1.95678
1.96064
1.96523
1.97137
1.9806
1.99596
2.02295
2.06977
2.14001
2.19551
2.09352
1.92794
1.98146
2.03054
2.05094
2.03524
2.00109
1.96582
1.93921
1.92342
1.91661
1.91588
1.91872
1.9234
1.92895
1.93482
1.94079
1.94591
1.94919
1.95256
1.95608
1.95995
1.96457
1.97076
1.98008
1.99559
2.02281
2.06993
2.14026
2.19495
2.09224
1.92687
1.97986
2.02892
2.05006
2.03511
2.00137
1.96608
1.93923
1.92316
1.91612
1.91523
1.91798
1.92262
1.92814
1.93401
1.93997
1.94515
1.94846
1.95184
1.95538
1.95927
1.96393
1.97016
1.97956
1.99521
2.02267
2.0701
2.14051
2.19437
2.09098
1.92583
1.97829
2.02734
2.04917
2.03499
2.00164
1.96635
1.93927
1.92292
1.91564
1.9146
1.91725
1.92184
1.92734
1.93319
1.93916
1.94441
1.94773
1.95113
1.95468
1.95859
1.96328
1.96956
1.97905
1.99485
2.02255
2.07028
2.14075
2.19379
2.08974
1.92481
1.97675
2.02576
2.04828
2.03483
2.00189
1.96662
1.93931
1.92269
1.91519
1.91398
1.91653
1.92107
1.92654
1.93239
1.93835
1.94367
1.947
1.95042
1.95399
1.95793
1.96264
1.96897
1.97854
1.99448
2.02242
2.07046
2.14097
2.1932
2.08852
1.92381
1.97523
2.0242
2.04737
2.03468
2.00213
1.96688
1.93937
1.92247
1.91473
1.91337
1.91582
1.92031
1.92575
1.93159
1.93754
1.94292
1.94628
1.9497
1.9533
1.95726
1.96201
1.96839
1.97804
1.99414
2.0223
2.07063
2.14119
2.1926
2.08732
1.92283
1.97374
2.02266
2.04647
2.03449
2.00237
1.96715
1.93943
1.92227
1.9143
1.91276
1.91512
1.91955
1.92497
1.93079
1.93674
1.94219
1.94555
1.949
1.95261
1.95659
1.96137
1.96781
1.97755
1.99378
2.02219
2.07081
2.14139
2.19201
2.08615
1.92187
1.97228
2.02113
2.04556
2.03431
2.0026
1.96741
1.9395
1.92207
1.91388
1.91218
1.91443
1.91881
1.9242
1.93
1.93594
1.94145
1.94485
1.9483
1.95193
1.95594
1.96075
1.96723
1.97706
1.99344
2.02209
2.07098
2.14159
2.1914
2.08499
1.92092
1.97084
2.01962
2.04465
2.0341
2.00281
1.96768
1.93958
1.92189
1.91346
1.9116
1.91375
1.91807
1.92343
1.92922
1.93516
1.94073
1.94413
1.9476
1.95125
1.95528
1.96013
1.96666
1.97657
1.9931
2.02198
2.07116
2.14177
2.19078
2.08385
1.91998
1.96942
2.01812
2.04372
2.03387
2.00301
1.96794
1.93967
1.92173
1.91306
1.91103
1.91308
1.91733
1.92267
1.92844
1.93437
1.94
1.94342
1.94691
1.95058
1.95463
1.95951
1.96609
1.97608
1.99276
2.02188
2.07133
2.14196
2.19016
2.08273
1.91907
1.96802
2.01665
2.0428
2.03364
2.00321
1.96821
1.93975
1.92156
1.91267
1.91047
1.91241
1.91661
1.92191
1.92767
1.93359
1.93927
1.94271
1.94622
1.94991
1.95398
1.95889
1.96553
1.97561
1.99243
2.02179
2.0715
2.14212
2.18953
2.08162
1.91817
1.96664
2.01518
2.04187
2.03339
2.00339
1.96847
1.93985
1.92141
1.91229
1.90993
1.91176
1.91589
1.92116
1.92691
1.93282
1.93856
1.94201
1.94554
1.94924
1.95333
1.95828
1.96496
1.97513
1.99211
2.02169
2.07167
2.14228
2.1889
2.08052
1.91728
1.96529
2.01373
2.04094
2.03313
2.00357
1.96873
1.93995
1.92127
1.91193
1.90939
1.91111
1.91518
1.92042
1.92614
1.93204
1.93784
1.94131
1.94486
1.94857
1.9527
1.95766
1.9644
1.97466
1.99178
2.0216
2.07184
2.14242
2.18827
2.07944
1.91641
1.96395
2.0123
2.04
2.03285
2.00373
1.96898
1.94006
1.92113
1.91156
1.90886
1.91048
1.91449
1.91968
1.9254
1.93129
1.93713
1.94061
1.94417
1.94791
1.95205
1.95706
1.96385
1.97419
1.99146
2.02151
2.07201
2.14256
2.18763
2.07838
1.91555
1.96264
2.01088
2.03906
2.03256
2.00388
1.96924
1.94017
1.92101
1.91122
1.90834
1.90985
1.91379
1.91895
1.92465
1.93053
1.93643
1.93992
1.9435
1.94726
1.95141
1.95646
1.96329
1.97372
1.99115
2.02143
2.07217
2.14268
2.18698
2.07732
1.91471
1.96134
2.00947
2.03802
2.03226
2.00402
1.96949
1.94028
1.92089
1.91088
1.90784
1.90923
1.91311
1.91823
1.92391
1.92978
1.93569
1.93923
1.94282
1.94659
1.95078
1.95585
1.96274
1.97326
1.99084
2.02135
2.07233
2.1428
2.18633
2.07628
1.91387
1.96006
2.00807
2.03697
2.03194
2.00415
1.96973
1.9404
1.92078
1.91054
1.90734
1.90861
1.91243
1.91752
1.92317
1.92903
1.93494
1.93855
1.94215
1.94594
1.95015
1.95525
1.9622
1.9728
1.99053
2.02127
2.0725
2.14291
2.18567
2.07525
1.91305
1.9588
2.00669
2.03592
2.03161
2.00426
1.96997
1.94051
1.92067
1.91022
1.90684
1.90801
1.91175
1.91681
1.92245
1.9283
1.9342
1.93787
1.94149
1.94529
1.94953
1.95466
1.96165
1.97235
1.99022
2.02119
2.07265
2.143
2.185
2.07423
1.91224
1.95755
2.00533
2.03486
2.03128
2.00437
1.9702
1.94064
1.92058
1.90991
1.90636
1.90741
1.91109
1.9161
1.92172
1.92757
1.93345
1.93719
1.94082
1.94465
1.9489
1.95406
1.96111
1.97189
1.98991
2.02111
2.07281
2.14309
2.18434
2.07323
1.91145
1.95633
2.00397
2.03382
2.03093
2.00447
1.97044
1.94076
1.92049
1.90961
1.90588
1.90682
1.91043
1.91541
1.92101
1.92683
1.93272
1.93651
1.94016
1.944
1.94828
1.95347
1.96057
1.97144
1.98962
2.02103
2.07296
2.14317
2.18367
2.07223
1.91066
1.95511
2.00263
2.03278
2.03057
2.00456
1.97067
1.94089
1.92041
1.90931
1.90542
1.90624
1.90978
1.91472
1.9203
1.92611
1.93199
1.93585
1.9395
1.94336
1.94766
1.95288
1.96004
1.971
1.98932
2.02096
2.07312
2.14323
2.183
2.07125
1.90989
1.95392
2.00131
2.03173
2.0302
2.00464
1.9709
1.94102
1.92034
1.90902
1.90496
1.90566
1.90913
1.91403
1.91959
1.9254
1.93127
1.93518
1.93885
1.94272
1.94704
1.9523
1.9595
1.97055
1.98903
2.02089
2.07326
2.14329
2.18232
2.07027
1.90912
1.95274
1.99998
2.03068
2.02982
2.00471
1.97111
1.94115
1.92026
1.90874
1.90451
1.9051
1.9085
1.91336
1.91889
1.92469
1.93055
1.93451
1.9382
1.94208
1.94642
1.95172
1.95897
1.97011
1.98874
2.02083
2.07341
2.14335
2.18164
2.0693
1.90836
1.95158
1.99868
2.02965
2.02943
2.00476
1.97133
1.94129
1.9202
1.90847
1.90406
1.90454
1.90787
1.91269
1.91819
1.92398
1.92984
1.93386
1.93755
1.94145
1.94581
1.95114
1.95844
1.96967
1.98845
2.02076
2.07355
2.14339
2.18096
2.06834
1.90762
1.95042
1.99739
2.02861
2.02903
2.00481
1.97154
1.94142
1.92015
1.9082
1.90363
1.90399
1.90724
1.91202
1.91751
1.92328
1.92913
1.93319
1.93691
1.94082
1.9452
1.95056
1.95791
1.96924
1.98817
2.02069
2.07369
2.14343
2.18027
2.06739
1.90689
1.94929
1.99611
2.02758
2.02862
2.00485
1.97175
1.94156
1.92009
1.90794
1.90321
1.90344
1.90663
1.91136
1.91682
1.92258
1.92842
1.93254
1.93627
1.9402
1.9446
1.94998
1.95739
1.96881
1.98789
2.02063
2.07383
2.14345
2.17958
2.06645
1.90616
1.94817
1.99484
2.02655
2.0282
2.00488
1.97194
1.9417
1.92004
1.90769
1.90279
1.90291
1.90601
1.91071
1.91615
1.92189
1.92773
1.93189
1.93562
1.93957
1.94399
1.94942
1.95688
1.96838
1.98761
2.02057
2.07396
2.14347
2.17889
2.06551
1.90544
1.94706
1.99358
2.02552
2.02778
2.00489
1.97214
1.94183
1.92
1.90745
1.90237
1.90237
1.90541
1.91005
1.91547
1.92121
1.92703
1.93124
1.93499
1.93895
1.94339
1.94884
1.95636
1.96795
1.98734
2.02052
2.0741
2.14348
2.1782
2.06459
1.90473
1.94596
1.99234
2.02449
2.02734
2.00491
1.97233
1.94197