/*--------------------------------*- C++ -*----------------------------------*\
  =========                 |
  \\      /  F ield         | OpenFOAM: The Open Source CFD Toolbox
   \\    /   O peration     | Website:  https://openfoam.org
    \\  /    A nd           | Version:  8
     \\/     M anipulation  |
\*---------------------------------------------------------------------------*/
FoamFile
{
    version     2.0;
    format      ascii;
    class       volScalarField;
    location    "1.2";
    object      def;
}
// * * * * * * * * * * * * * * * * * * * * * * * * * * * * * * * * * * * * * //

dimensions      [0 0 -1 0 0 0 0];

internalField   nonuniform List<scalar> 
6300
(
0.312792
1.38437
2.57198
3.91477
5.51212
7.44081
9.77151
12.5588
15.8397
19.6389
23.9739
28.8584
34.304
40.3208
46.9178
54.1032
61.8845
70.269
79.2636
88.8752
99.1103
109.975
121.476
133.62
146.418
159.925
174.454
191.795
222.105
339.106
0.758875
2.04156
3.35042
4.81957
6.54589
8.62101
11.1174
14.0819
17.5419
21.5137
26.0087
31.0362
36.6043
42.7199
49.3892
56.6176
64.4102
72.7717
81.7064
91.2187
101.312
111.991
123.257
135.113
147.569
160.678
174.768
191.676
221.753
338.125
0.914936
2.20655
3.6431
5.29186
7.18582
9.40001
12.0159
15.0931
18.6696
22.7673
27.3973
32.5662
38.2779
44.5353
51.3406
58.6952
66.6002
75.0564
84.0644
93.6251
103.739
114.408
125.634
137.42
149.779
162.771
176.735
193.492
223.288
339.548
1.16205
2.44529
3.94619
5.70338
7.73023
10.0782
12.8144
16.0009
19.6819
23.8826
28.6146
33.8832
39.6903
46.0368
52.9225
60.3466
68.3071
76.7994
85.8038
95.3096
105.342
115.909
127.01
138.647
150.824
163.601
177.334
193.911
223.807
339.955
1.44101
2.73405
4.26973
6.08482
8.18979
10.6247
13.4465
16.7118
20.4636
24.7273
29.5149
34.8316
40.6793
47.0583
53.9683
61.4078
69.3753
77.8678
86.8352
96.2849
106.258
116.757
127.781
139.331
151.415
164.094
177.736
194.266
224.337
340.475
1.74234
3.06061
4.63207
6.49581
8.66639
11.1795
14.0837
17.4292
21.2554
25.5859
30.4326
35.8003
41.6905
48.1033
55.0379
62.4926
70.4655
78.9542
87.8446
97.2435
107.156
117.585
128.529
139.992
151.982
164.566
178.123
194.624
224.892
340.988
2.06837
3.42052
5.03177
6.94206
9.17144
11.7558
14.7385
18.1635
22.0654
26.4652
31.3735
36.7942
42.7288
49.1768
56.137
63.6075
71.586
79.9989
88.844
98.1905
108.041
118.397
129.261
140.636
152.534
165.027
178.504
194.987
225.459
341.477
2.42136
3.81079
5.46421
7.42065
9.70509
12.3556
15.4129
18.9155
22.893
27.3631
32.334
37.8091
43.789
50.2729
57.2593
64.7459
72.7297
81.0434
89.8449
99.1372
108.923
119.206
129.99
141.277
153.084
165.485
178.886
195.357
226.033
341.941
2.80343
4.23089
5.92729
7.92984
10.2674
12.9809
16.1097
19.6881
23.7408
28.2813
33.3158
38.846
44.872
51.3925
58.4056
65.9085
73.8142
82.0933
90.8492
100.086
109.806
120.015
130.716
141.916
153.632
165.944
179.27
195.733
226.611
342.379
3.21662
4.68157
6.4206
8.46892
10.8584
13.6329
16.8312
20.484
24.6111
29.2224
34.3209
39.9069
45.9797
52.5373
59.5774
67.0968
74.9068
83.149
91.8574
101.036
110.69
120.823
131.442
142.554
154.178
166.4
179.654
196.111
227.188
342.79
3.66302
5.16413
6.94458
9.03788
11.4784
14.3127
17.579
21.305
25.5062
30.188
35.3509
40.9934
47.1134
53.7086
60.7759
68.2565
76.0085
84.2117
92.8705
101.99
111.575
121.632
132.167
143.189
154.721
166.854
180.035
196.489
227.763
343.173
4.14478
5.68015
7.5002
9.63725
12.128
15.021
18.3545
22.1529
26.4276
31.1801
36.4077
42.1068
48.2745
54.9074
62.0021
69.3988
77.1201
85.2819
93.8891
102.947
112.462
122.44
132.89
143.822
155.261
167.303
180.411
196.863
228.332
343.527
4.66415
6.23141
8.08873
10.2679
12.8077
15.7589
19.1589
23.0292
27.3772
32.2002
37.4926
43.2487
49.4642
56.135
63.257
70.5545
78.2426
86.3605
94.9136
103.908
113.35
123.249
133.612
144.452
155.796
167.745
180.78
197.232
228.895
343.851
5.22353
6.81982
8.71164
10.9309
13.5187
16.5273
19.9934
23.9353
28.3563
33.2499
38.6072
44.4204
50.6839
57.3927
64.4863
71.7243
79.3765
87.4479
95.9445
104.873
114.241
124.057
134.331
145.078
156.325
168.18
181.14
197.594
229.448
344.143
5.82545
7.44741
9.37057
11.6276
14.2621
17.3275
20.8592
24.8725
29.3665
34.3306
39.7529
45.6233
51.9349
58.6815
65.6993
72.9091
80.5224
88.5446
96.9821
105.842
115.133
124.865
135.048
145.698
156.846
168.605
181.49
197.947
229.991
344.402
6.47261
8.11636
10.0673
12.3595
15.039
18.1605
21.7577
25.8423
30.4092
35.4439
40.9312
46.8589
53.2184
60.0027
66.931
74.1095
81.6809
89.6509
98.0265
106.815
116.027
125.671
135.76
146.311
157.358
169.019
181.828
198.289
230.522
344.627
7.16786
8.82898
10.8037
13.128
15.8509
19.0277
22.6901
26.8461
31.486
36.5913
42.1436
48.1286
54.536
61.3577
68.1822
75.3262
82.8524
90.7672
99.0778
107.793
116.921
126.476
136.468
146.918
157.86
169.42
182.153
198.619
231.039
344.815
7.91426
9.58772
11.5818
13.9351
16.6994
19.9306
23.658
27.8853
32.5983
37.7743
43.3917
49.4339
55.889
62.7145
69.4537
76.5596
84.0374
91.8937
100.136
108.774
117.817
127.278
137.171
147.515
158.35
169.807
182.462
198.936
231.54
344.964
8.71502
10.3952
12.4037
14.7823
17.5859
20.8706
24.6628
28.9615
33.7476
38.9944
44.677
50.7763
57.2789
64.0378
70.7459
77.8103
85.2362
93.0305
101.201
109.758
118.712
128.077
137.867
148.103
158.827
170.179
182.755
199.237
232.025
345.071
9.57358
11.2541
13.2717
15.6719
18.5124
21.8494
25.706
30.0762
34.9357
40.2534
46.0011
52.1575
58.7073
65.3865
72.0598
79.0788
86.4491
94.1778
102.273
110.746
119.608
128.872
138.555
148.679
159.29
170.533
183.029
199.522
232.49
345.135
10.4936
12.1674
14.1884
16.6058
19.4806
22.8688
26.7895
31.2313
36.1642
41.5529
47.3658
53.579
60.1757
66.7613
73.3958
80.3656
87.6764
95.3357
103.352
111.737
120.502
129.662
139.235
149.244
159.736
170.868
183.284
199.789
232.935
345.152
11.4789
13.1384
15.1562
17.5862
20.4927
23.9307
27.9151
32.4283
37.435
42.8948
48.7727
55.0427
61.6858
68.1631
74.7546
81.671
88.9183
96.5041
104.438
112.73
121.395
130.447
139.905
149.794
160.166
171.184
183.518
200.036
233.356
345.119
12.5337
14.1702
16.1779
18.6156
21.5506
25.037
29.0846
33.6694
38.7498
44.2808
50.2239
56.5503
63.2395
69.5926
76.1367
82.9955
90.175
97.683
105.529
113.726
122.285
131.225
140.564
150.33
160.576
171.477
183.729
200.261
233.752
345.034
13.6622
15.2664
17.2566
19.6966
22.6569
26.1899
30.3001
34.9564
40.1108
45.7131
51.7212
58.1039
64.8386
71.0506
77.5429
84.3395
91.4466
98.8724
106.627
114.722
123.173
131.996
141.212
150.849
160.966
171.747
183.916
200.463
234.12
344.892
14.8692
16.4309
18.3953
20.8318
23.8138
27.3917
31.5639
36.2916
41.52
47.1937
53.2667
59.7054
66.3931
72.5379
78.9735
85.7032
92.7333
100.072
107.73
115.72
124.057
132.758
141.846
151.35
161.334
171.993
184.077
200.639
234.458
344.689
16.1597
17.6676
19.5975
22.0242
25.024
28.6449
32.8782
37.6772
42.9797
48.7248
54.8627
61.357
67.9621
74.0554
80.4292
87.087
94.0351
101.282
108.839
116.718
124.936
133.511
142.466
151.833
161.679
172.211
184.209
200.788
234.763
344.423
17.5389
18.981
20.8667
23.2769
26.2905
29.9521
34.2457
39.1158
44.4923
50.3088
56.5115
63.061
69.5675
75.6036
81.9104
88.491
95.3519
102.502
109.952
117.716
125.81
134.253
143.069
152.294
161.998
172.401
184.312
200.907
235.033
344.089
19.0125
20.3756
22.2068
24.5933
27.6161
31.3161
35.6691
40.6099
46.0605
51.9484
58.2156
64.8198
71.2101
77.1835
83.4176
89.9156
96.6838
103.731
111.069
118.712
126.677
134.983
143.656
152.733
162.291
172.56
184.383
200.995
235.263
343.682
20.5866
21.8564
23.6221
25.977
29.0041
32.74
37.1511
42.1623
47.687
53.6462
59.9776
66.6361
72.891
78.7958
84.9513
91.3608
98.0306
104.97
112.19
119.707
127.536
135.699
144.223
153.148
162.554
172.687
184.42
201.048
235.451
343.198
22.2677
23.4287
25.1169
27.4318
30.4581
34.227
38.695
43.7762
49.3748
55.4051
61.8005
68.5126
74.6114
80.441
86.5119
92.8268
99.3922
106.217
113.314
120.698
128.386
136.401
144.77
153.536
162.787
172.78
184.421
201.064
235.593
342.632
24.0627
25.0983
26.696
28.962
31.9817
35.7806
40.3042
45.4548
51.127
57.2283
63.6873
70.4524
76.3721
82.1199
88.0996
94.3135
100.768
107.473
114.44
121.685
129.227
137.087
145.296
153.897
162.987
172.836
184.383
201.04
235.686
341.978
25.9791
26.8712
28.3646
30.5719
33.5791
37.4046
41.9821
47.2015
52.9472
59.1191
65.6412
72.4586
78.1741
83.8332
89.7146
95.8209
102.158
108.736
115.567
122.667
130.055
137.755
145.797
154.229
163.152
172.854
184.305
200.974
235.726
341.232
28.025
28.7541
30.1282
32.2664
35.2545
39.1031
43.7328
49.0203
54.839
61.0813
67.666
74.5346
80.0184
85.5811
91.3572
97.3487
103.562
110.006
116.695
123.643
130.871
138.403
146.272
154.528
163.28
172.83
184.184
200.862
235.708
340.387
30.2091
30.7541
31.9929
34.0508
37.0127
40.8804
45.5605
50.9152
56.8065
63.1187
69.7653
76.6577
81.9058
87.3643
93.0273
98.8966
104.978
111.282
117.821
124.611
131.672
139.03
146.72
154.794
163.369
172.763
184.017
200.701
235.629
339.436
32.5408
32.8789
33.9652
35.9306
38.8589
42.7415
47.4698
52.8907
58.854
65.2357
71.9434
78.6938
83.8371
89.1829
94.7248
100.464
106.407
112.563
118.944
125.569
132.457
139.635
147.138
155.024
163.416
172.651
183.801
200.489
235.483
338.375
35.0302
35.137
36.0519
37.912
40.7985
44.6914
49.4657
54.9517
60.9865
67.4368
74.2047
80.7836
85.8127
91.037
96.4493
102.051
107.846
113.847
120.064
126.516
133.223
140.213
147.524
155.215
163.419
172.49
183.534
200.221
235.267
337.197
37.6883
37.5373
38.2609
40.0017
42.8376
46.736
51.5536
57.1036
63.209
69.7273
76.5542
82.928
87.8329
92.9264
98.2002
103.655
109.296
115.132
121.178
127.45
133.969
140.765
147.875
155.366
163.376
172.278
183.213
199.894
234.974
335.893
40.5273
40.0897
40.6004
42.2069
44.9829
48.8814
53.7398
59.3523
65.5273
72.1126
78.9972
85.1276
89.898
94.8507
99.9766
105.276
110.753
116.418
122.284
128.368
134.693
141.286
148.19
155.474
163.284
172.013
182.835
199.504
234.6
334.459
43.5601
42.8051
43.0796
44.5356
47.2415
51.1345
56.0306
61.7041
67.9478
74.5988
81.5395
87.3829
92.0075
96.8089
101.777
106.911
112.217
117.702
123.38
129.269
135.391
141.776
148.466
155.536
163.141
171.692
182.397
199.048
234.14
332.885
46.8012
45.6952
45.7083
46.9966
49.6216
53.5029
58.4336
64.1664
70.4775
77.1928
84.1874
89.6937
94.1605
98.7997
103.6
108.56
113.684
118.981
124.464
130.15
136.062
142.23
148.7
155.549
162.944
171.312
181.896
198.522
233.588
331.166
50.2664
48.7731
48.4976
49.5995
52.1319
55.995
60.957
66.7471
73.124
79.9019
86.9481
92.0592
96.3558
100.821
105.443
110.219
115.152
120.252
125.532
131.007
136.702
142.647
148.89
155.513
162.691
170.872
181.33
197.921
232.939
329.292
53.973
52.053
51.4597
52.355
54.7824
58.6203
63.6098
69.4551
75.8962
82.7343
89.829
94.478
98.591
102.87
107.302
111.884
116.618
121.513
126.58
131.838
137.308
143.024
149.033
155.423
162.379
170.368
180.695
197.244
232.187
327.258
57.9406
55.5511
54.608
55.2752
57.5842
61.3895
66.4025
72.3007
78.8036
85.6993
92.8385
96.9473
100.863
104.944
109.175
113.552
118.077
122.758
127.606
132.639
137.878
143.358
149.127
155.279
162.007
169.798
179.989
196.484
231.327
325.055
62.1907
59.285
57.9578
58.3734
60.5497
64.3144
69.3468
75.2951
81.8572
88.8068
95.9653
99.4633
103.167
107.036
111.055
115.217
119.524
123.984
128.605
133.406
138.408
143.645
149.169
155.077
161.572
169.162
179.211
195.641
230.353
322.675
66.7478
63.2749
61.5261
61.6649
63.6932
67.409
72.4562
78.4514
85.0692
92.0681
98.7546
102.02
105.496
109.141
112.936
116.874
120.955
125.184
129.573
134.136
138.895
143.884
149.158
154.816
161.074
168.456
178.357
194.71
229.26
320.113
71.6397
67.5436
65.3324
65.1672
67.0311
70.6891
75.746
81.7843
88.4534
95.4953
101.594
104.61
107.844
111.251
114.81
118.514
122.36
126.354
130.503
134.823
139.335
144.072
149.09
154.495
160.511
167.682
177.427
193.688
228.044
317.36
76.8981
72.1175
69.3992
68.9004
70.5825
74.173
79.2342
85.3108
92.0251
99.1017
104.474
107.221
110.197
113.354
116.668
120.129
123.734
127.486
131.392
135.464
139.725
144.206
148.966
154.113
159.884
166.839
176.422
192.576
226.701
314.411
82.5604
77.0269
73.7526
72.8881
74.3696
77.8824
82.9414
89.0502
95.8014
102.901
107.378
109.839
112.543
115.438
118.497
121.709
125.067
128.573
132.232
136.055
140.061
144.285
148.784
153.672
159.194
165.928
175.34
191.37
225.227
311.26
88.6705
82.3082
78.4236
77.1586
78.4191
81.8431
86.8921
93.0245
99.8008
106.907
110.286
112.443
114.862
117.485
120.284
123.241
126.349
129.607
133.017
136.59
140.343
144.308
148.545
153.172
158.443
164.953
174.186
190.074
223.619
307.902
95.2824
88.005
83.4495
81.7452
82.7625
86.0848
91.1139
97.2575
104.042
111.133
113.169
115.009
117.132
119.477
122.01
124.71
127.568
130.579
133.742
137.066
140.567
144.276
148.252
152.618
157.637
163.918
172.964
188.688
221.878
304.334
102.46
94.1709
88.8765
86.6901
87.4396
90.645
95.6402
101.777
108.544
114.918
115.988
117.501
119.323
121.387
123.654
126.101
128.712
131.479
134.4
137.48
140.733
144.189
147.908
152.015
156.782
162.832
171.681
187.22
220.006
300.553
110.297
100.876
94.7612
92.0421
92.4938
95.562
100.502
106.603
113.315
117.999
118.698
119.879
121.401
123.188
125.195
127.394
129.766
132.298
134.986
137.83
140.842
144.051
147.519
151.372
155.89
161.708
170.351
185.68
218.009
296.56
118.884
108.205
101.181
97.8731
97.9925
100.896
105.749
111.771
118.37
120.89
121.222
122.081
123.314
124.837
126.599
128.565
130.712
133.023
135.489
138.109
140.893
143.867
147.092
150.7
154.975
160.561
168.991
184.085
215.9
292.365
128.461
116.297
108.222
104.238
103.97
106.66
111.368
117.236
123.635
123.524
123.507
124.063
125.029
126.31
127.848
129.602
131.543
133.651
135.914
138.327
140.898
143.651
146.649
150.023
154.064
159.424
167.635
182.469
213.708
287.977
139.043
125.281
116.049
111.312
110.595
113.008
117.487
123.095
126.931
125.684
125.376
125.683
126.429
127.512
128.864
130.441
132.209
134.143
136.23
138.461
140.842
143.398
146.188
149.348
153.173
158.318
166.312
180.865
211.469
283.457
151.737
135.53
124.699
118.959
117.619
119.59
123.655
128.798
128.993
127.462
126.922
127.032
127.606
128.532
129.737
131.17
132.794
134.583
136.519
138.593
140.809
143.189
145.795
148.764
152.392
157.341
165.125
179.382
209.282
278.81
165.193
147.122
134.795
128.003
125.92
127.279
130.718
132.807
129.659
128.091
127.514
127.587
128.12
128.998
130.148
131.517
133.068
134.774
136.617
138.587
140.686
142.938
145.404
148.222
151.692
156.474
164.069
178.034
207.216
274.384
186.902
161.177
144.92
135.938
132.389
132.494
134.6
133.681
130.669
129.14
128.571
128.634
129.141
129.978
131.074
132.377
133.851
135.469
137.211
139.068
141.042
143.158
145.477
148.141
151.454
156.079
163.495
177.157
205.512
269.794
202.493
177.835
160.103
148.977
143.236
140.445
134.815
130.436
128.224
127.337
127.252
127.681
128.469
129.524
130.786
132.217
133.786
135.471
137.257
139.138
141.116
143.217
145.503
148.117
151.361
155.892
163.169
176.58
204.345
267.024
265.376
192.611
160.618
144.568
136.445
132.947
131.771
131.205
130.696
130.492
130.651
131.117
131.831
132.747
133.834
135.064
136.414
137.867
139.409
141.035
142.749
144.578
146.588
148.923
151.891
156.145
163.101
175.979
202.449
261.348
321.057
215.273
169.172
148.778
139.426
134.962
132.148
130.079
128.923
128.517
128.629
129.109
129.863
130.837
131.992
133.298
134.732
136.278
137.922
139.661
141.504
143.48
145.66
148.197
151.408
155.957
163.262
176.482
203.004
260.723
279.403
219.964
181.4
157.818
144.648
138.073
135.508
135.246
136.166
137.452
138.378
138.782
139.094
139.544
140.18
140.994
141.968
143.079
144.311
145.653
147.107
148.696
150.483
152.609
155.379
159.436
166.165
178.675
204.336
260.869
289.859
233.687
194.393
169.396
154.591
146.571
142.86
141.704
141.683
141.049
140.302
139.963
139.978
140.282
140.822
141.561
142.467
143.516
144.687
145.97
147.366
148.895
150.621
152.682
155.38
159.354
165.986
178.379
203.836
259.557
282.301
234.327
198.638
174.354
159.025
150.119
145.551
143.73
143.535
144.225
144.543
144.054
143.891
144.013
144.37
144.923
145.641
146.499
147.478
148.565
149.76
151.083
152.594
154.43
156.892
160.617
166.994
179.134
204.342
259.519
280.636
236.711
202.917
179.135
163.578
154.155
149.012
146.658
146
146.311
146.25
145.755
145.6
145.709
146.032
146.534
147.186
147.967
148.858
149.847
150.935
152.141
153.526
155.226
157.542
161.117
167.348
179.369
204.498
259.303
278.24
237.183
205.054
181.925
166.428
156.773
151.286
148.573
147.579
147.589
147.824
147.375
147.236
147.335
147.627
148.08
148.67
149.374
150.177
151.069
152.048
153.137
154.393
155.958
158.132
161.567
167.673
179.617
204.725
259.299
276.693
237.578
206.627
184.012
168.621
158.851
153.148
150.186
148.946
148.723
148.818
148.441
148.343
148.457
148.741
149.168
149.715
150.365
151.102
151.916
152.809
153.802
154.955
156.411
158.474
161.805
167.833
179.713
204.813
259.302
275.404
237.714
207.656
185.453
170.177
160.358
154.522
151.393
149.977
149.581
149.553
149.25
149.198
149.332
149.615
150.024
150.538
151.142
151.821
152.568
153.385
154.295
155.359
156.722
158.696
161.949
167.863
179.454
204.834
259.346
274.398
237.803
208.423
186.531
171.346
161.5
155.575
152.328
150.785
150.259
150.053
149.824
149.82
149.979
150.269
150.667
151.156
151.723
152.355
153.045
153.798
154.638
155.629
156.918
158.822
162.02
167.543
179.317
204.935
259.403
273.572
237.857
209.012
187.356
172.232
162.362
156.371
153.038
151.402
150.779
150.396
150.234
150.278
150.465
150.764
151.157
151.628
152.165
152.757
153.401
154.1
154.881
155.811
157.04
158.892
161.703
167.317
179.26
205.089
259.472
272.888
237.906
209.494
188.017
172.928
163.028
156.979
153.579
151.872
151.036
150.619
150.519
150.607
150.822
151.134
151.526
151.984
152.498
153.058
153.663
154.317
155.05
155.931
157.113
158.671
161.448
167.16
179.26
205.277
259.548
272.309
237.955
209.906
188.566
173.489
163.55
157.447
153.968
152.03
151.111
150.757
150.71
150.838
151.081
151.407
151.801
152.251
152.746
153.282
153.854
154.473
155.167
156.008
156.972
158.419
161.249
167.053
179.299
205.486
259.628
271.811
238.008
210.271
189.038
173.955
163.968
157.561
153.907
152.005
151.134
150.83
150.829
150.994
151.263
151.604
152.002
152.446
152.929
153.445
153.992
154.581
155.244
155.917
156.738
158.213
161.094
166.983
179.366
205.71
259.711
271.375
238.065
210.603
189.457
174.354
163.945
157.501
153.841
151.959
151.122
150.858
150.895
151.092
151.384
151.74
152.144
152.586
153.06
153.56
154.088
154.654
155.179
155.709
156.542
158.043
160.972
166.942
179.455
205.942
259.797
270.988
238.126
210.91
189.836
174.459
163.949
157.457
153.777
151.899
151.084
150.851
150.919
151.145
151.458
151.828
152.239
152.682
153.149
153.638
154.151
154.601
155
155.532
156.377
157.903
160.876
166.923
179.56
206.182
259.885
270.64
238.188
211.197
190.185
174.564
163.981
157.429
153.717
151.833
151.03
150.819
150.914
151.163
151.495
151.879
152.297
152.741
153.205
153.686
154.107
154.449
154.843
155.379
156.236
157.785
160.8
166.922
179.678
206.427
259.976
270.324
238.251
211.469
190.503
174.695
164.035
157.416
153.662
151.763
150.965
150.77
150.884
151.154
151.503
151.899
152.324
152.771
153.234
153.661
153.979
154.313
154.706
155.246
156.114
157.686
160.742
166.935
179.806
206.675
260.068
270.032
238.315
211.727
190.706
174.848
164.107
157.416
153.615
151.693
150.893
150.708
150.838
151.124
151.488
151.895
152.328
152.778
153.24
153.553
153.862
154.192
154.585
155.128
156.008
157.602
160.697
166.959
179.943
206.926
260.161
269.761
238.378
211.974
190.92
175.017
164.195
157.428
153.574
151.625
150.816
150.636
150.778
151.078
151.455
151.872
152.312
152.766
153.155
153.453
153.756
154.083
154.475
155.024
155.915
157.53
160.663
166.994
180.088
207.179
260.255
269.507
238.439
212.21
191.145
175.198
164.296
157.451
153.54
151.558
150.737
150.558
150.709
151.02
151.407
151.834
152.28
152.738
153.067
153.358
153.658
153.982
154.376
154.93
155.832
157.468
160.639
167.036
180.238
207.433
260.349
269.266
238.498
212.437
191.376
175.389
164.408
157.483
153.512
151.494
150.657
150.476
150.632
150.952
151.349
151.783
152.236
152.698
152.981
153.269
153.565
153.889
154.285
154.844
155.758
157.414
160.622
167.086
180.393
207.688
260.443
269.037
238.555
212.655
191.612
175.588
164.528
157.524
153.491
151.434
150.578
150.392
150.551
150.877
151.282
151.724
152.182
152.618
152.898
153.183
153.478
153.802
154.2
154.766
155.69
157.367
160.612
167.141
180.552
207.942
260.536
268.818
238.609
212.865
191.85
175.792
164.656
157.571
153.475
151.377
150.499
150.305
150.466
150.797
151.209
151.656
152.121
152.538
152.816
153.099
153.394
153.72
154.121
154.693
155.629
157.326
160.607
167.201
180.714
208.195
260.629
268.606
238.66
213.068
192.089
176.001
164.79
157.625
153.464
151.323
150.421
150.218
150.378
150.713
151.13
151.584
152.053
152.458
152.736
153.019
153.314
153.641
154.046
154.624
155.572
157.289
160.606
167.265
180.879
208.448
260.72
268.401
238.708
213.263
192.328
176.211
164.928
157.685
153.459
151.272
150.346
150.131
150.289
150.627
151.048
151.506
151.98
152.378
152.656
152.94
153.236
153.566
153.975
154.56
155.519
157.256
160.61
167.333
181.046
208.699
260.81
268.202
238.753
213.452
192.566
176.424
165.071
157.75
153.457
151.225
150.271
150.045
150.198
150.538
150.963
151.426
151.904
152.298
152.577
152.862
153.16
153.493
153.906
154.498
155.469
157.227
160.617
167.404
181.215
208.948
260.898
268.008
238.796
213.634
192.801
176.637
165.218
157.819
153.46
151.181
150.199
149.959
150.108
150.448
150.876
151.342
151.824
152.219
152.499
152.785
153.086
153.422
153.84
154.439
155.422
157.2
160.626
167.477
181.385
209.195
260.984
267.818
238.835
213.81
193.034
176.85
165.366
157.891
153.467
151.14
150.13
149.874
150.018
150.357
150.788
151.257
151.743
152.139
152.421
152.71
153.013
153.353
153.776
154.383
155.377
157.175
160.638
167.553
181.555
209.44
261.068
267.632
238.871
213.981
193.264
177.063
165.517
157.968
153.477
151.103
150.062
149.79
149.928
150.266
150.698
151.171
151.659
152.059
152.344
152.635
152.942
153.285
153.713
154.328
155.334
157.153
160.652
167.63
181.727
209.683
261.15
267.449
238.904
214.146
193.49
177.275
165.67
158.047
153.491
151.068
149.996
149.708
149.838
150.176
150.609
151.084
151.575
151.98
152.267
152.562
152.871
153.218
153.652
154.274
155.292
157.132
160.668
167.709
181.898
209.922
261.23
267.269
238.934
214.306
193.713
177.486
165.824
158.129
153.508
151.036
149.932
149.627
149.75
150.085
150.519
150.996
151.49
151.9
152.191
152.488
152.801
153.152
153.592
154.222
155.252
157.112
160.685
167.789
182.069
210.159
261.307
267.092
238.961
214.46
193.932
177.695
165.978
158.213
153.527
151.006
149.871
149.548
149.662
149.995
150.429
150.908
151.405
151.821
152.115
152.415
152.732
153.088
153.532
154.17
155.213
157.094
160.703
167.87
182.241
210.393
261.382
266.917
238.986
214.61
194.147
177.902
166.133
158.299
153.549
150.979
149.812
149.47
149.576
149.905
150.34
150.821
151.319
151.743
152.039
152.343
152.664
153.024
153.474
154.12
155.175
157.077
160.722
167.952
182.412
210.624
261.454
266.744
239.008
214.755
194.358
178.108
166.289
158.388
153.574
150.954
149.754
149.394
149.49
149.816
150.251
150.733
151.234
151.664
151.964
152.272
152.596
152.96
153.416
154.07
155.138
157.061
160.743
168.035
182.582
210.852
261.524
266.573
239.027
214.896
194.565
178.311
166.445
158.478
153.601
150.932
149.699
149.319
149.406
149.728
150.162
150.646
151.148
151.586
151.889
152.2
152.528
152.897
153.359
154.021
155.101
157.045
160.764
168.118
182.752
211.077
261.592
266.404
239.044
215.033
194.768
178.513
166.601
158.569
153.63
150.912
149.645
149.246
149.322
149.641
150.074
150.559
151.063
151.508
151.815
152.129
152.461
152.835
153.302
153.972
155.065
157.03
160.786
168.202
182.921
211.299
261.657
266.237
239.059
215.165
194.968
178.712
166.756
158.662
153.661
150.894
149.594
149.174
149.24
149.555
149.987
150.472
150.978
151.43
151.741
152.059
152.395
152.773
153.246
153.924
155.03
157.016
160.809
168.287
183.09
211.518
261.719
266.072
239.071
215.293
195.163
178.909
166.912
158.756
153.694
150.878
149.544
149.104
149.16
149.47
149.901
150.387
150.894
151.353
151.667
151.989
152.329
152.711
153.19
153.877
154.995
157.002
160.832
168.372
183.257
211.733
261.779
265.908
239.081
215.418
195.355
179.103
167.066
158.851
153.729
150.864
149.496
149.035
149.08
149.385
149.815
150.301
150.81
151.277
151.594
151.919
152.263
152.65
153.135
153.829
154.96
156.989
160.856
168.457
183.424
211.946
261.837
265.745
239.09
215.539
195.543
179.295
167.221
158.947
153.766
150.852
149.45
148.968
149.002
149.302
149.73
150.217
150.727
151.201
151.521
151.85
152.198
152.589
153.08
153.782
154.926
156.976
160.881
168.542
183.59
212.155
261.893
265.585
239.096
215.657
195.727
179.485
167.374
159.044
153.804
150.842
149.405
148.902
148.925
149.219
149.646
150.133
150.644
151.125
151.448
151.781
152.133
152.529
153.025
153.736
154.892
156.964
160.906
168.628
183.755
212.362
261.946
265.425
239.1
215.771
195.907
179.672
167.527
159.142
153.844
150.834
149.363
148.838
148.849
149.138
149.563
150.05
150.562
151.05
151.376
151.712
152.068
152.469
152.971
153.69
154.859
156.952
160.931
168.714
183.919
212.565
261.997
265.267
239.103
215.882
196.084
179.857
167.68
159.24
153.886
150.827
149.321
148.775
148.774
149.058
149.481
149.968
150.481
150.975
151.305
151.644
152.004
152.409
152.917
153.644
154.826
156.941
160.957
168.8
184.082
212.765
262.045
265.11
239.104
215.99
196.258
180.04
167.831
159.339
153.928
150.822
149.282
148.714
148.7
148.978
149.399
149.886
150.4
150.9
151.234
151.577
151.94
152.349
152.863
153.598
154.793
156.93
160.983
168.886
184.244
212.963
262.092
264.954
239.103
216.094
196.428
180.22
167.982
159.438
153.972
150.819
149.244
148.654
148.628
148.9
149.319
149.805
150.32
150.827
151.163
151.509
151.876
152.29
152.809
153.553
154.76
156.919
161.01
168.972
184.405
213.157
262.136
264.799
239.101
216.196
196.595
180.398
168.131
159.538
154.018
150.817
149.207
148.595
148.556
148.822
149.239
149.725
150.241
150.753
151.093
151.442
151.813
152.231
152.756
153.507
154.728
156.908
161.037
169.058
184.565
213.349
262.179
264.646
239.097
216.295
196.758
180.573
168.28
159.638
154.064
150.817
149.172
148.537
148.486
148.746
149.16
149.646
150.162
150.68
151.023
151.375
151.75
152.172
152.703
153.463
154.696
156.898
161.064
169.144
184.724
213.538
262.219
264.494
239.091
216.391
196.918
180.746
168.428
159.739
154.112
150.818
149.139
148.481
148.417
148.67
149.082
149.567
150.084
150.608
150.953
151.309
151.687
152.114
152.65
153.418
154.664
156.889
161.092
169.231
184.881
213.724
262.257
264.343
239.085
216.485
197.076
180.917
168.575
159.839
154.16
150.82
149.107
148.426
148.349
148.595
149.004
149.489
150.007
150.536
150.884
151.243
151.624
152.056
152.598
153.374
154.633
156.879
161.12
169.317
185.038
213.907
262.293
264.193
239.077
216.576
197.221
181.086
168.721
159.94
154.21
150.824
149.076
148.373
148.282
148.521
148.928
149.412
149.93
150.462
150.815
151.178
151.562
151.998
152.545
153.329
154.602
156.87
161.148
169.403
185.193
214.087
262.328
264.044
239.067
216.665
197.362
181.252
168.866
160.041
154.261
150.83
149.047
148.32
148.216
148.449
148.852
149.335
149.854
150.387
150.747
151.112
151.501
151.94
152.493
153.285
154.571
156.862
161.177
169.49
185.348
214.265
262.361
263.896
239.057
216.751
197.5
181.416
169.01
160.142
154.312
150.836
149.018
148.269
148.151
148.377
148.777
149.26
149.779
150.312
150.679
151.048
151.439
151.883
152.442
153.242
154.541
156.853
161.206
169.576
185.501
214.44
262.391
263.75
239.045
216.835
197.636
181.578
169.152
160.244
154.365
150.844
148.992
148.219
148.087
148.305
148.702
149.184
149.704
150.238
150.612
150.983
151.378
151.826
152.39
153.198
154.51
156.845
161.236
169.662
185.653
214.613
262.42
263.604
239.032
216.916
197.77
181.738
169.294
160.345
154.418
150.853
148.966
148.17
148.024
148.235
148.629
149.11
149.63
150.165
150.545
150.919
151.317
151.769
152.339
153.155
154.48
156.838
161.265
169.748
185.804
214.782
262.448
263.459
239.019
216.996
197.902
181.896
169.435
160.447
154.472
150.863
148.942
148.122
147.962
148.165
148.556
149.036
149.556
150.092
150.478
150.855
151.257
151.713
152.288
153.112
154.45
156.83
161.295
169.835
185.954
214.95
262.473
263.316
239.004
217.073
198.031
182.052
169.574
160.548
154.527
150.874
148.919
148.075
147.901
148.097
148.484
148.963
149.483
150.02
150.412
150.792
151.196
151.656
152.237
153.07
154.421
156.823
161.326
169.921
186.103
215.115
262.498
263.173
238.988
217.149
198.158
182.206
169.713
160.649
154.582
150.887
148.897
148.03
147.841
148.029
148.413
148.89
149.41
149.949
150.346
150.728
151.136
151.6
152.186
153.027
154.392
156.816
161.356
170.007
186.251
215.277
262.52
263.031
238.971
217.222
198.283
182.357
169.851
160.751
154.639
150.9
148.876
147.985
147.781
147.962
148.342
148.818
149.339
149.877
150.281
150.666
151.077
151.545
152.136
152.985
154.363
156.81
161.387
170.093
186.398
215.438
262.541
262.891
238.954
217.294
198.405
182.507
169.987
160.852
154.696
150.915
148.857
147.942
147.723
147.896
148.272
148.747
149.267
149.807
150.215
150.603
151.017
151.489
152.086
152.943
154.334
156.804
161.418
170.179
186.543
215.595
262.56
262.751
238.935
217.363
198.526
182.655
170.122
160.953
154.753
150.93
148.838
147.899
147.666
147.83
148.202
148.676
149.196
149.737
150.151
150.541
150.958
151.434
152.036
152.901
154.306
156.798
161.45
170.265
186.688
215.751
262.578
262.612
238.916
217.431
198.645
182.801
170.257
161.054
154.811
150.947
148.821
147.858
147.61
147.765
148.134
148.606
149.126
149.667
150.086
150.479
150.899
151.379
151.986
152.86
154.278
156.793
161.481
170.35
186.831
215.904
262.595
262.474
238.896
217.497
198.762
182.945
170.39
161.155
154.87
150.964
148.804
147.818
147.554
147.702
148.066
148.537
149.057
149.598
150.022
150.418
150.841
151.324
151.937
152.819
154.25
156.788
161.513
170.436
186.974
216.055
262.61
262.337
238.875
217.561
198.876
183.087
170.522
161.255
154.929
150.982
148.789
147.778
147.499
147.638
147.998
148.468
148.987
149.53
149.959
150.357
150.783
151.27
151.888
152.778
154.223
156.783
161.546
170.522
187.115
216.204
262.624
262.201
238.854
217.624
198.989
183.227
170.653
161.356
154.989
151.002
148.775
147.74
147.446
147.576
147.932
148.399
148.919
149.461
149.895
150.296
150.725
151.216
151.839
152.737
154.196