/*--------------------------------*- C++ -*----------------------------------*\
  =========                 |
  \\      /  F ield         | OpenFOAM: The Open Source CFD Toolbox
   \\    /   O peration     | Website:  https://openfoam.org
    \\  /    A nd           | Version:  8
     \\/     M anipulation  |
\*---------------------------------------------------------------------------*/
FoamFile
{
    version     2.0;
    format      ascii;
    class       volScalarField;
    location    "1.2";
    object      N02;
}
// * * * * * * * * * * * * * * * * * * * * * * * * * * * * * * * * * * * * * //

dimensions      [0 0 0 0 0 0 0];

internalField   nonuniform List<scalar> 
6300
(
209.33
852.976
952.763
967.189
974.269
978.46
981.235
983.239
984.785
986.039
987.091
987.995
988.794
989.573
990.812
992.147
993.576
993.936
993.481
993.845
994.176
994.477
994.753
995.006
995.239
995.452
995.64
995.771
995.685
994.399
111.709
706.206
897.776
928.505
943.945
953.204
959.377
963.854
967.32
970.133
972.491
974.517
976.315
978.101
980.737
983.52
986.341
987.076
986.354
987.141
987.855
988.505
989.099
989.643
990.142
990.598
990.999
991.275
991.076
988.324
75.416
602.049
849.361
891.328
913.395
927.182
936.605
943.538
948.947
953.353
957.058
960.264
963.208
966.653
970.776
974.33
978.457
979.565
978.723
979.966
981.094
982.121
983.06
983.92
984.709
985.429
986.06
986.488
986.156
981.778
57.0845
521.766
804.849
855.698
883.095
900.817
913.246
922.545
929.872
935.879
940.958
945.398
949.599
954.705
960.263
964.678
970.03
971.514
970.675
972.404
973.974
975.404
976.71
977.907
979.005
980.006
980.88
981.462
980.964
974.825
46.9794
460.466
763.982
822.247
853.936
874.978
890.053
901.512
910.637
918.176
924.597
930.28
935.792
942.531
949.561
955.709
961.236
963.09
962.346
964.572
966.593
968.435
970.119
971.661
973.076
974.365
975.485
976.217
975.517
967.502
41.2724
413.679
726.21
790.827
826.031
849.869
867.246
880.64
891.421
900.402
908.118
915.036
921.881
930.218
938.715
946.385
952.045
953.521
953.787
956.513
958.991
961.25
963.316
965.21
966.947
968.528
969.896
970.77
969.832
959.848
37.9134
377.621
691.157
761.237
799.37
825.577
844.949
860.063
872.351
882.677
891.629
899.765
907.944
917.836
927.764
936.767
942.539
943.836
945.042
948.269
951.203
953.881
956.331
958.578
960.639
962.514
964.13
965.135
963.923
951.899
35.8495
349.331
658.576
733.308
773.911
802.138
823.238
839.873
853.524
865.094
875.222
884.547
894.048
905.442
916.742
926.911
932.791
934.068
936.151
939.873
943.262
946.356
949.189
951.789
954.175
956.343
958.202
959.327
957.806
943.687
34.5361
326.621
628.269
706.895
749.598
779.555
802.154
820.131
835.01
847.728
858.982
869.55
880.932
893.777
905.68
916.867
922.875
924.247
927.149
931.358
935.194
938.7
941.913
944.864
947.572
950.03
952.128
953.359
951.495
935.245
33.6775
307.923
600.054
681.872
726.369
757.815
781.715
800.874
816.857
830.637
842.975
854.804
867.936
882.081
894.604
906.685
912.845
914.401
918.066
922.752
927.028
930.939
934.526
937.822
940.849
943.593
945.922
947.245
945.003
926.601
33.1025
292.138
573.756
658.128
704.164
736.893
761.924
782.125
799.101
813.864
827.247
840.332
855.08
870.397
883.541
896.415
902.746
904.553
908.931
914.082
918.786
923.094
927.048
930.683
934.022
937.046
939.598
940.995
938.345
917.784
32.7056
278.494
549.208
635.564
682.921
716.758
742.773
763.893
781.763
797.44
811.833
826.149
842.402
858.885
873.446
886.102
892.618
894.725
899.769
905.369
910.49
915.184
919.496
923.463
927.107
930.404
933.168
934.623
931.533
908.818
32.4176
266.451
526.251
614.091
662.583
697.377
724.249
746.181
764.86
781.389
796.756
812.268
829.925
847.538
863.277
875.781
882.494
884.936
890.601
896.636
902.159
907.227
911.887
916.177
920.119
923.679
926.645
928.139
924.58
899.728
32.1907
255.623
504.736
593.629
643.095
678.718
706.335
728.986
748.4
765.741
782.125
799.324
817.667
836.351
853.071
865.391
871.639
875.202
881.448
887.9
893.812
899.241
904.238
908.841
913.07
916.883
920.039
921.553
917.499
890.535
31.9904
245.733
484.527
574.105
624.407
660.745
689.013
712.301
732.39
750.512
767.934
786.706
806.342
825.323
842.862
854.988
860.964
865.538
872.326
879.178
885.463
891.241
896.562
901.467
905.973
910.03
913.361
914.876
910.3
881.26
31.7911
236.578
465.499
555.456
606.471
643.425
672.261
696.119
716.832
735.713
754.172
774.398
795.148
814.451
832.674
844.616
850.469
855.958
863.252
870.486
877.128
883.24
888.873
894.068
898.84
903.128
906.621
908.117
902.996
871.922
31.5736
228.008
447.541
537.62
589.243
626.728
656.06
680.429
701.725
721.348
740.831
762.406
784.228
804.653
822.532
834.311
840.158
846.474
854.239
861.836
868.819
875.25
881.182
886.655
891.682
896.19
899.83
901.286
895.598
862.54
31.3233
219.909
430.552
520.545
572.68
610.623
640.389
665.22
687.066
707.413
727.897
750.729
773.561
794.889
812.459
824.101
830.029
837.094
845.299
853.242
860.549
867.285
873.502
879.24
884.509
889.223
892.995
894.39
888.115
853.129
31.0294
212.198
414.444
504.181
556.746
595.08
625.228
650.481
672.861
694
716.028
739.361
763.129
785.191
802.475
814.01
820.085
827.829
836.442
844.713
852.328
859.353
865.841
871.832
877.331
882.238
886.125
887.439
880.558
843.705
30.6841
204.81
399.139
488.482
541.404
580.073
610.557
636.202
659.114
681.086
704.55
729.009
752.916
775.565
792.511
803.349
810.325
818.685
827.68
836.259
844.166
851.465
858.21
864.441
870.156
875.243
879.228
880.44
872.937
834.282
30.2825
197.695
384.568
473.409
526.621
565.576
596.359
622.374
645.818
668.645
693.432
718.844
742.912
766.023
782.612
792.958
800.75
809.67
819.018
827.889
836.071
843.629
850.617
857.074
862.993
868.244
872.312
873.401
865.262
824.873
29.8217
190.817
370.669
458.922
512.368
551.565
582.617
608.985
632.967
656.653
682.667
708.997
734.01
756.575
772.814
782.83
791.361
800.789
810.466
819.61
828.051
835.853
843.071
849.74
855.849
861.251
865.384
866.329
857.541
815.491
29.3009
184.147
357.39
444.988
498.615
538.018
569.315
596.039
620.648
645.804
672.243
699.432
725.167
747.234
763.142
772.957
782.158
792.047
802.029
811.43
820.113
828.145
835.578
842.446
848.731
854.27
858.45
859.231
849.783
806.147
28.7207
177.663
344.681
431.574
485.336
524.914
556.44
583.532
608.833
635.363
662.874
690.121
716.397
738.012
753.62
763.332
773.14
783.448
793.712
803.354
812.264
820.51
828.145
835.199
841.647
847.307
851.516
852.114
841.997
796.851
28.0836
171.35
332.503
418.65
472.508
512.235
543.981
571.457
597.492
625.298
653.711
681.043
707.719
728.839
743.6
753.949
764.306
774.996
785.521
795.387
804.51
812.956
820.778
828.004
834.602
840.368
844.589
844.983
834.191
787.613
27.3929
165.195
320.817
406.19
460.107
499.963
531.925
559.804
586.597
615.592
644.877
673.079
699.14
719.754
733.871
744.802
755.658
766.693
777.46
787.534
796.854
805.487
813.483
820.869
827.602
833.459
837.675
837.846
826.373
778.442
26.6531
159.191
309.591
394.168
448.113
488.083
520.272
548.663
576.9
606.232
636.332
665.186
690.668
710.785
724.424
735.886
747.193
758.543
769.532
779.799
789.303
798.108
806.266
813.797
820.652
826.585
830.778
830.707
818.549
769.345
25.8693
153.331
298.794
382.562
436.508
476.581
509.019
538.003
567.599
597.949
628.044
657.371
682.31
701.958
715.247
727.196
738.91
750.546
761.74
772.186
781.859
790.824
799.13
806.794
813.758
819.752
823.903
823.573
810.728
760.332
25.0473
147.61
288.402
371.349
425.273
465.447
498.16
527.794
558.66
589.869
619.985
649.633
673.997
692.66
706.334
718.726
730.81
742.705
754.087
764.698
774.527
783.639
792.08
799.865
806.924
812.963
817.056
816.448
802.917
751.408
24.1932
142.027
278.39
360.511
414.394
454.68
487.788
518.859
550.065
582.108
613.038
641.973
665.765
683.643
697.676
710.473
722.891
735.021
746.575
757.338
767.31
776.556
785.121
793.013
800.154
806.223
810.24
809.338
795.121
742.579
23.3134
136.578
268.737
350.03
403.858
444.278
477.875
510.317
542.582
574.625
606.151
634.397
657.642
674.899
689.266
702.431
715.152
727.494
739.205
750.107
760.211
769.578
778.255
786.243
793.452
799.537
803.46
802.248
787.348
733.853
22.4142
131.264
259.424
339.888
393.655
434.233
468.393
502.132
535.304
567.386
599.33
626.912
649.65
666.42
681.096
694.598
707.591
720.126
731.98
743.009
753.231
762.71
771.486
779.558
786.822
792.907
796.721
795.182
779.604
725.234
21.5019
126.084
250.435
330.073
383.782
424.647
460.282
494.288
528.343
561.277
592.57
619.451
641.205
658.197
673.161
686.968
700.208
712.917
724.901
736.045
746.375
755.952
764.816
772.96
780.267
786.338
790.024
788.146
771.895
716.727
20.5825
121.037
241.753
320.571
374.239
415.491
452.543
487.599
521.66
555.236
585.871
612.052
633.025
650.224
665.454
679.539
693.002
705.866
717.968
729.216
739.643
749.308
758.25
766.454
773.791
779.833
783.375
781.142
764.226
708.337
19.662
116.124
233.365
311.382
365.131
407.872
445.143
481.112
515.219
549.261
579.239
604.764
625.104
642.493
657.97
672.308
685.97
698.975
711.183
722.524
733.037
742.781
751.789
760.042
767.395
773.394
776.777
774.176
756.603
700.068
18.7457
111.347
225.27
302.621
357.82
400.618
438.968
474.933
509.932
543.345
572.612
597.022
617.432
634.999
650.703
665.271
679.113
692.243
704.546
715.97
726.559
736.37
745.435
753.726
761.084
767.025
770.232
767.252
749.032
691.923
17.8392
106.712
217.595
296.122
350.776
393.698
432.997
469.024
504.713
537.484
566.024
589.526
610.004
627.736
643.65
658.426
672.428
685.671
698.057
709.555
720.21
730.08
739.19
747.508
754.859
760.728
763.745
760.373
741.516
683.907
17.1326
106.427
213.13
289.861
344.091
388.116
427.337
464.328
499.561
531.68
559.5
582.271
602.813
620.698
636.806
651.77
665.915
679.257
691.718
703.28
713.992
723.91
733.057
741.391
748.722
754.505
757.317
753.543
734.062
676.021
21.4776
106.137
208.946
285.421
338.935
382.735
421.954
459.725
494.465
525.869
552.497
575.25
595.854
613.882
630.168
645.301
659.574
673.003
685.528
697.145
707.906
717.864
727.037
735.377
742.677
748.36
750.951
746.766
726.675
668.27
24.9662
105.953
207.056
281.172
333.987
377.657
417.852
455.209
489.42
520.079
545.696
568.458
589.122
607.283
623.731
639.016
653.402
666.908
679.489
691.152
701.952
711.941
721.132
729.467
736.723
742.293
744.65
740.046
719.357
660.656
30.3672
108.501
205.254
277.114
329.347
373.979
413.856
450.765
484.362
513.78
539.093
561.893
582.613
600.897
617.495
632.916
647.401
660.972
673.6
685.301
696.132
706.142
715.342
723.662
730.864
736.307
738.416
733.385
712.114
653.181
34.8901
110.913
203.545
273.351
326.278
370.435
409.96
446.387
479.315
507.64
532.686
555.552
576.325
594.724
611.456
626.998
641.569
655.195
667.862
679.593
690.447
700.47
709.669
717.964
725.1
730.404
732.252
726.787
704.95
645.847
38.8591
115.598
204.024
271.437
323.353
367.018
406.15
442.011
473.752
501.658
526.474
549.432
570.256
588.759
605.613
621.262
635.906
649.578
662.274
674.028
684.896
694.925
704.113
712.375
719.433
724.585
726.159
720.254
697.869
638.656
44.6856
120.084
204.547
269.65
320.566
363.719
402.42
437.654
468.327
495.834
520.458
543.533
564.404
583.002
599.965
615.707
630.413
644.121
656.839
668.606
679.482
689.507
698.677
706.894
713.863
718.85
720.139
713.79
690.875
631.61
49.8252
124.384
205.114
267.988
317.91
360.529
398.709
432.79
463.04
490.176
514.683
537.856
558.769
577.453
594.512
610.333
625.09
638.825
651.556
663.329
674.203
684.217
693.36
701.523
708.392
713.202
714.194
707.397
683.97
624.71
54.4621
128.52
205.729
266.447
315.379
357.388
394.484
428.063
457.891
484.69
509.148
532.401
553.353
572.113
589.255
605.142
619.938
633.69
646.426
658.197
669.062
679.056
688.163
696.262
703.02
707.642
708.326
701.077
677.158
617.958
58.7315
131.668
205.605
264.316
312.315
353.739
390.395
423.473
452.885
479.384
503.858
527.174
548.157
566.983
584.195
600.135
614.958
628.718
641.45
653.211
664.058
674.024
683.086
691.112
697.748
702.168
702.534
694.833
670.443
611.355
61.8272
134.82
205.621
262.368
309.423
350.25
386.441
419.02
448.028
474.266
498.815
522.18
543.187
562.066
579.335
595.314
610.152
623.909
636.629
648.37
659.191
669.121
678.129
686.072
692.575
696.783
696.821
688.667
663.827
604.902
65.1282
137.981
205.775
260.599
306.702
346.919
382.625
414.708
443.325
469.346
494.03
517.426
538.447
557.367
574.678
590.681
605.522
619.265
631.963
643.676
654.462
664.346
673.291
681.141
687.501
691.485
691.187
682.581
657.312
598.599
68.575
141.16
206.069
259.011
304.155
343.749
378.953
410.544
438.79
464.639
489.512
512.922
533.947
552.893
570.228
586.24
601.07
614.789
627.453
639.128
649.87
659.7
668.573
676.319
682.524
686.274
685.632
676.575
650.901
592.448
72.1662
144.376
206.509
257.611
301.789
340.747
375.435
406.541
434.443
460.211
485.28
508.684
529.696
548.65
565.992
581.996
596.8
610.481
623.101
634.728
645.416
655.182
663.973
671.605
677.645
681.15
680.156
670.651
644.596
586.448
75.9363
147.658
207.11
256.412
299.62
337.928
372.086
402.717
430.317
456.14
481.354
504.728
525.708
544.649
561.978
577.954
592.716
606.344
618.908
630.476
641.099
650.79
659.488
666.997
672.86
676.109
674.758
664.809
638.398
580.6
79.9336
151.038
207.893
255.435
297.668
335.313
368.931
399.102
426.455
452.458
477.762
501.077
522
540.904
558.194
574.121
588.822
602.382
614.875
626.371
636.918
646.524
655.118
662.492
668.167
671.151
669.435
659.049
632.308
574.903
84.2722
154.575
208.898
254.72
295.976
332.942
366.011
395.743
422.913
449.206
474.541
497.758
518.593
537.429
554.653
570.505
585.124
598.598
611.004
622.413
632.871
642.38
650.859
658.085
663.562
666.27
664.186
653.368
626.325
569.357
89.028
158.316
210.164
254.316
294.592
330.865
363.379
392.717
419.903
446.446
471.739
494.811
515.516
534.246
551.369
567.118
581.629
594.996
607.297
618.604
628.958
638.356
646.708
653.774
659.039
661.462
659.004
647.765
620.448
563.961
94.6426
162.446
211.824
254.351
293.642
329.202
361.162
390.172
417.563
444.239
469.403
492.269
512.794
531.372
548.355
563.967
578.342
591.577
603.754
614.94
625.175
634.447
642.656
649.55
654.591
656.717
653.883
642.232
614.674
558.71
101.072
166.96
213.931
254.917
293.224
328.049
359.48
388.377
416.048
442.705
467.629
490.207
510.484
528.853
545.646
561.078
575.282
588.357
600.384
611.428
621.524
630.652
638.703
645.407
650.209
652.028
648.814
636.761
608.994
553.599
110.547
172.673
217.044
256.522
293.806
327.86
358.798
387.67
415.411
441.874
466.427
488.62
508.574
526.669
543.219
558.427
572.424
585.308
597.16
608.04
617.978
626.945
634.821
641.321
645.871
647.372
643.775
631.336
603.397
548.623
121.552
179.164
221.155
259.256
295.499
328.842
359.608
388.441
415.965
441.993
465.997
487.673
507.197
524.931
541.166
556.09
569.831
582.483
594.123
604.809
614.561
623.343
631.021
637.295
641.573
642.742
638.757
625.942
597.863
543.75
143.278
189.51
228.445
265.001
299.929
332.249
362.258
390.529
417.462
442.793
466.073
487.115
506.121
523.426
539.292
553.891
567.344
579.739
591.149
601.625
611.179
619.764
627.233
633.273
637.274
638.11
633.75
620.589
592.425
539.026
138.554
183.603
221.666
257.495
292.128
324.582
354.906
383.535
410.805
436.479
460.118
481.509
500.827
518.401
534.498
549.3
562.931
575.485
587.038
597.641
607.31
615.999
623.562
629.686
633.76
634.655
630.326
617.149
588.88
535.25
132.567
179.746
217.021
251.89
285.951
318.232
348.562
377.254
404.612
430.426
454.276
475.927
495.506
513.317
529.627
544.62
558.423
571.133
582.826
593.558
603.344
612.14
619.803
626.017
630.173
631.135
626.851
613.676
585.33
531.506
125.281
175.546
212.688
246.855
280.397
312.444
342.697
371.381
398.776
424.726
448.777
470.647
490.439
508.446
524.933
540.087
554.038
566.883
578.7
589.546
599.437
608.331
616.083
622.38
626.61
627.636
623.393
610.219
581.803
527.805
118.734
171.713
208.838
242.388
275.428
307.205
337.334
365.961
393.335
419.305
443.453
465.495
485.464
503.638
520.281
535.58
549.666
562.637
574.571
585.526
595.519
604.508
612.349
618.729
623.035
624.124
619.927
606.761
578.284
524.134
112.93
167.984
205.176
238.195
270.774
302.28
332.265
360.815
388.148
414.113
438.333
460.507
480.618
498.932
515.71
531.137
545.344
558.429
570.472
581.529
591.618
600.698
608.625
615.086
619.466
620.621
616.469
603.314
574.783
520.497
107.955
164.449
201.708
234.24
266.379
297.611
327.44
355.898
383.175
409.12
433.37
455.645
475.872
494.305
511.201
526.742
541.059
554.251
566.395
577.549
587.731
596.899
604.91
611.451
615.906
617.125
613.021
599.88
571.3
516.892
103.698
161.098
198.399
230.471
262.183
293.14
322.805
351.16
378.372
404.285
428.548
450.898
471.219
489.754
506.752
522.397
536.815
550.105
562.345
573.591
583.861
593.115
601.21
607.83
612.358
613.643
609.588
596.463
567.84
513.321
100.04
157.94
195.242
226.868
258.161
288.838
318.33
346.575
373.713
399.586
423.85
446.254
466.65
485.271
502.361
518.098
532.609
545.991
558.322
569.656
580.013
589.351
597.526
604.225
608.827
610.177
606.173
593.072
564.405
509.782
96.8659
154.971
192.23
223.418
254.293
284.686
313.998
342.124
369.181
395.004
419.263
441.704
462.16
480.854
498.024
513.846
528.443
541.912
554.328
565.747
576.187
585.607
593.862
600.638
605.313
606.728
602.784
589.706
560.993
506.276
94.0768
152.185
189.356
220.109
250.567
280.669
309.793
337.793
364.762
390.529
414.777
437.241
457.744
476.5
493.742
509.64
524.317
537.866
550.364
561.865
572.386
581.886
590.22
597.071
601.818
603.307
599.42
586.361
557.605
502.803
91.5938
149.572
186.615
216.935
246.973
276.779
305.707
333.574
360.448
386.158
410.386
432.86
453.398
472.207
489.511
505.479
520.23
533.856
546.432
558.011
568.611
578.188
586.598
593.525
598.35
599.912
596.079
583.039
554.239
499.362
89.3548
147.122
184
213.888
243.506
273.009
301.733
329.46
356.239
381.886
406.084
428.557
449.121
467.973
485.333
501.363
516.183
529.881
542.532
554.187
564.862
574.515
583
590.004
594.908
596.541
592.761
579.737
550.895
495.952
87.311
144.825
181.505
210.963
240.157
269.351
297.874
325.458
352.133
377.708
401.865
424.328
444.909
463.797
481.205
497.295
512.177
525.943
538.664
550.391
561.14
570.865
579.428
586.512
591.492
593.193
589.464
576.455
547.572
492.574
85.4247
142.668
179.126
208.153
236.923
265.815
294.128
321.562
348.124
373.619
397.727
420.173
440.763
459.679
477.129
493.27
508.211
522.041
534.829
546.624
557.444
567.244
575.885
583.047
588.101
589.868
586.188
573.193
544.271
489.227
83.6666
140.641
176.855
205.453
233.806
262.391
290.487
317.764
344.207
369.618
393.668
416.087
436.679
455.616
473.102
489.29
504.285
518.174
531.026
542.888
553.779
563.655
572.371
579.608
584.735
586.566
582.932
569.95
540.992
485.912
82.014
138.735
174.687
202.858
230.801
259.074
286.947
314.064
340.382
365.697
389.683
412.068
432.653
451.606
469.123
485.353
500.398
514.343
527.255
539.184
550.146
560.095
568.886
576.196
581.392
583.284
579.696
566.727
537.734
482.628
80.449
136.938
172.617
200.364
227.9
255.857
283.505
310.456
336.641
361.852
385.768
408.113
428.687
447.65
465.192
481.459
496.55
510.548
523.519
535.514
546.545
556.565
565.427
572.808
578.071
580.025
576.48
563.523
534.498
479.374
78.9575
135.242
170.639
197.97
225.098
252.735
280.159
306.933
332.978
358.082
381.921
404.221
424.777
443.745
461.309
477.609
492.742
506.789
519.82
531.878
542.976
553.064
561.995
569.444
574.774
576.786
573.284
560.338
531.283
476.151
77.5284
133.638
168.749
195.669
222.39
249.707
276.899
303.491
329.392
354.384
378.141
400.39
420.924
439.892
457.472
473.801
488.973
503.068
516.156
528.275
539.437
549.591
558.589
566.105
571.499
573.568
570.107
557.172
528.09
472.959
76.1526
132.119
166.942
193.457
219.772
246.768
273.721
300.127
325.88
350.754
374.425
396.618
417.126
436.089
453.682
470.036
485.243
499.386
512.527
524.705
535.928
546.146
555.209
562.79
568.246
570.37
566.949
554.025
524.918
469.796
74.8229
130.677
165.212
191.33
217.24
243.914
270.623
296.838
322.438
347.191
370.772
392.905
413.382
432.336
449.938
466.313
481.552
495.74
508.933
521.166
532.448
542.728
551.854
559.498
565.015
567.193
563.81
550.896
521.767
466.664
73.5335
129.307
163.556
189.282
214.789
241.141
267.6
293.622
319.065
343.694
367.18
389.249
409.69
428.632
446.239
462.633
477.901
492.131
505.372
517.659
528.998
539.337
548.524
556.229
561.805
564.036
560.691
547.787
518.638
463.562
72.2796
128.001
161.969
187.311
212.416
238.445
264.651
290.475
315.759
340.259
363.648
385.649
406.051
424.977
442.584
458.993
474.289
488.559
501.846
514.183
525.577
535.974
545.22
552.984
558.617
560.899
557.59
544.696
515.53
460.489
71.0571
126.755
160.448
185.412
210.119
235.823
261.772
287.395
312.517
336.886
360.174
382.103
402.463
421.369
438.974
455.395
470.715
485.022
498.352
510.738
522.185
532.637
541.94
549.762
555.45
557.782
554.509
541.624
512.443
457.446
69.8627
125.563
158.988
183.581
207.893
233.272
258.962
284.382
309.339
333.573
356.757
378.612
398.925
417.808
435.408
451.837
467.179
481.52
494.891
507.324
518.821
529.326
538.684
546.562
552.305
554.684
551.446
538.571
509.378
454.432
68.6938
124.422
157.586
181.817
205.737
230.79
256.218
281.432
306.221
330.318
353.395
375.172
395.436
414.293
431.885
448.319
463.681
478.054
491.463
503.94
515.485
526.041
535.453
543.385
549.18
551.607
548.402
535.537
506.334
451.447
67.5479
123.327
156.24
180.115
203.647
228.374
253.538
278.544
303.163
327.121
350.088
371.785
391.997
410.824
428.404
444.842
460.22
474.622
488.068
500.586
512.177
522.783
532.246
540.23
546.077
548.549
545.376
532.521
503.312
448.491
66.4232
122.274
154.945
178.472
201.621
226.021
250.92
275.716
300.163
323.979
346.834
368.448
388.605
407.4
424.966
441.403
456.796
471.224
484.704
497.261
508.897
519.55
529.063
537.098
542.995
545.511
542.37
529.524
500.311
445.564
65.3179
121.26
153.699
176.887
199.656
223.73
248.362
272.946
297.219
320.892
343.633
365.161
385.26
404.02
421.569
438.004
453.409
467.86
481.371
493.967
505.644
516.343
525.904
533.989
539.933
542.492
539.382
526.546
497.331
442.666
64.2307
120.282
152.499
175.356
197.751
221.498
245.863
270.234
294.331
317.859
340.483
361.923
381.961
400.684
418.213
434.643
450.057
464.53
478.071
490.701
502.418
513.161
522.769
530.901
536.892
539.493
536.412
523.586
494.373
439.796
63.1602
119.338
151.343
173.876
195.903
219.324
243.421
267.577
291.497
314.878
337.383
358.732
378.708
397.391
414.898
431.32
446.741
461.234
474.801
487.464
499.22
510.005
519.657
527.835
533.872
536.514
533.461
520.646
491.436
436.954
62.1055
118.424
150.228
172.447
194.11
217.205
241.035
264.975
288.716
311.947
334.333
355.59
375.5
394.14
411.623
428.035
443.46
457.97
471.562
484.257
496.048
506.874
516.569
524.792
530.872
533.553
530.529
517.723
488.52
434.14
61.0657
117.539
149.151
171.065
192.369
215.141
238.702
262.425
285.986
309.067
331.33
352.493
372.337
390.932
408.388
424.788
440.215
454.739
468.354
481.078
492.904
503.767
513.504
521.77
527.893
530.612
527.615
514.82
485.626
431.354
60.04
116.681
148.111
169.727
190.68
213.129
236.422
259.927
283.307
306.237
328.376
349.442
369.216
387.765
405.191
421.577
437.004
451.541
465.176
477.927
489.786
500.686
510.463
518.77
524.935
527.691
524.72
511.935
482.753
428.595
59.0276
115.847
147.106
168.434
189.04
211.168
234.193
257.479
280.677
303.454
325.468
346.437
366.139
384.638
402.034
418.403
433.827
448.374
462.028
474.805
486.694
497.629
507.445
515.792
521.997
524.788
521.843
509.069
479.902
425.864
58.028
115.036
146.134
167.181
187.448
209.256
232.014
255.08
278.095
300.718
322.606
343.475
363.104
381.552
398.914
415.265
430.684
445.24
458.911
471.71
483.629
494.597
504.449
512.836
519.079
521.905
518.985
506.222
477.072
423.16
57.0407
114.246
145.193
165.968
185.901
207.392
229.883
252.73
275.56
298.029
319.789
340.557
360.111
378.506
395.833
412.163
427.574
442.137
455.822
468.644
480.589
491.59
501.477
509.901
516.181
519.041
516.145
503.393
474.262
420.483
56.0651
113.476
144.281
164.793
184.399
205.575
227.8
250.426
273.072
295.385
317.016
337.681
357.159
375.499
392.788
409.096
424.498
439.065
452.764
465.605
477.576
488.606
498.527
506.987
513.303
516.196
513.323
500.583
471.475
417.833
55.1009
112.725
143.397
163.655
182.939
203.802
225.762
248.168
270.629
292.785
314.287
334.848
354.247
372.53
389.781
406.064
421.455
436.025
449.734
462.593
474.588
485.647
495.601
504.095
510.446
513.37
510.52
497.792
468.708
415.209
54.1477
111.991
142.539
162.551
181.521
202.074
223.77
245.955
268.23
290.229
311.6
332.056
351.375
369.6
386.809
403.066
418.445
433.015
446.733
459.609
471.626
482.712
492.696
501.224
507.608
510.563
507.735
495.019
465.962
412.612
53.2051
111.273
141.706
161.48
180.142
200.388
221.821
243.785
265.875
287.716
308.955
329.305
348.543
366.707
383.874
400.103
415.466
430.036
443.761
456.652
468.689
479.801
489.814
498.374
504.791
507.774
504.968
492.264
463.238
410.041
52.2729
110.57
140.897
160.44
178.801
198.743
219.915
241.659
263.562
285.245
306.351
326.593
345.749
363.851
380.974
397.173
412.52
427.086
440.818
453.721
465.778
476.914
486.955
495.545
501.993
505.005
502.219
489.529
460.534
407.496
51.3507
109.882
140.11
159.432
177.498
197.139
218.05
239.574
261.291
282.815
303.788
323.922
342.993
361.032
378.109
394.277
409.605
424.167
437.903
450.817
462.891
474.05
484.118
492.737
499.215
502.254
499.489
486.811
457.852
404.976
50.4384
109.207
139.345
158.452
176.23
195.574
216.226
237.53
259.06
280.425
301.264
321.288
340.275
358.249
375.279
391.414
406.722
421.277
435.015
447.94
460.03
471.209
481.302
489.95
496.456
499.522
496.777
484.113
455.19
402.482
49.5357
108.545
138.6
157.5
174.997
194.046
214.441
235.526
256.869
278.075
298.779
318.693
337.593
355.502
372.483
388.583
403.869
418.417
432.156
445.088
457.193
468.392
478.509
487.183
493.718
496.809
494.082
481.433
452.55
400.014
48.6423
107.894
137.875
156.576
173.797
192.556
212.695
233.56
254.718
275.764
296.333
316.136
334.948
352.79
369.72
385.785
401.048
415.585
429.323
442.263
454.381
465.598
475.738
484.437
490.998
494.114
491.406
478.771
449.93
397.57
47.7581
107.255
137.167
155.676
172.629
191.101
210.987
231.634
252.605
273.491
293.924
313.616
332.339
350.112
366.991
383.019
398.256
412.783
426.519
439.463
451.593
462.828
472.988
481.712
488.299
491.438
488.747
476.127
447.331
395.151
46.883
106.627
136.478
154.802
171.492
189.681
209.315
229.744
250.529
271.255
291.553
311.131
329.766
347.469
364.295
380.284
395.495
410.009
423.741
436.689
448.829
460.079
470.26
479.007
485.618
488.78
486.107
473.502
444.752
392.757
46.0167
106.009
135.804
153.951
170.385
188.295
207.679
227.891
248.49
269.056
289.218
308.683
327.227
344.86
361.631
377.58
392.763
407.263
420.99
433.941
446.089
457.354
467.554
476.323
482.957
486.14
483.484
470.896
442.194
390.387
45.159
105.4
135.147
153.122
169.307
186.942
206.078
226.074
246.487
266.893
286.918
306.27
324.723
342.284
359
374.907
390.061
404.545
418.265
431.217
443.374
454.651
464.869
473.658
480.315
483.519
480.879
468.307
439.657
388.041
44.3099
104.8
134.505
152.316
168.258
185.621
204.511
224.291
244.519
264.766
284.654
303.891
322.252
339.74
356.4
372.265
387.387
401.855
415.567
428.519
440.681
451.971
462.205
471.014
477.692
480.916
478.292
465.737
437.14
385.72
43.4692
104.208
133.877
151.531
167.235
184.33
202.977
222.543
242.587
262.673
282.424
301.547
319.815
337.229
353.831
369.652
384.743
399.192
412.895
425.845
438.013
449.313
459.562
468.39
475.087
478.331
475.723
463.185
434.643
383.422
42.6367
103.625
133.263
150.766
166.238
183.071
201.475
220.829
240.687
260.614
280.229
299.236
317.41
334.75
351.294
367.07
382.127
396.556
410.249
423.196
435.367
446.677
456.94
465.785
472.502
475.764
473.171
460.651
432.167
381.147
41.8124
103.05
132.662
150.021
165.267
181.841
200.005
219.147
238.822
258.589
278.066
296.958
315.039
332.303
348.786
364.517
379.54
393.947
407.628
420.571
432.745
444.063
454.339
463.201
469.936
473.215
470.637
458.135
429.711
378.896
40.996
102.481
132.074
149.294
164.32
180.639
198.566
217.497
236.988
256.596
275.937
294.713
312.698
329.886
346.309
361.993
376.98
391.365
405.033
417.971
430.146
441.471
451.758
460.636
467.388
470.684
468.12
455.637
427.274
376.668
40.1876
101.92
131.498
148.585
163.396
179.466
197.156
215.878
235.187
254.636
273.84
292.5
310.39
327.5
343.862
359.497
374.449
388.81
402.463
415.394
427.569
438.9
449.198
458.09
464.859
468.17
465.621
453.157
424.858
374.463
39.3869
101.365
130.933
147.893
162.496
178.319
195.776
214.29
233.417
252.708
271.774
290.318
308.112
325.145
341.444
357.03
371.944
386.28
399.917
412.841
425.016
436.351
446.659
455.564
462.348
465.675
463.139
450.695
422.462
372.281
38.5939
100.817
130.379
147.217
161.617
177.2
194.424
212.732
231.678
250.81
269.74
288.167
305.865
322.819
339.055
354.591
369.466
383.776
397.397
410.312
422.484
433.824
444.14
453.057
459.856
463.197
460.674
448.251
420.086
370.121
37.8085
100.275
129.836
146.558
160.76
176.105
193.1
211.203
229.969
248.943
267.736
286.047
303.648
320.523
336.695
352.18
367.016
381.298
394.901
407.806
419.975
431.317
441.641
450.57
457.382
460.736
458.226
445.824
417.729
367.983
37.0306
99.7386
129.303
145.914
159.923
175.036
191.803
209.703
228.289
247.106
265.762
283.956
301.46
318.256
334.363
349.796
364.591
378.845
392.429
405.323
417.488
428.832
439.162
448.101
454.926
458.294
455.796
443.416
415.392
365.867
36.2601
99.2078
128.779
145.284
159.106
173.991
190.533
208.231
226.638
245.298
263.818
281.895
299.302
316.017
332.058
347.439
362.193
376.417
389.981
402.863
415.023
426.367
436.703
445.652
452.488
455.868
453.383
441.025
413.074
363.773
35.4969
98.6822
128.265
144.668
158.309
172.97
189.289
206.787
225.016
243.52
261.903
279.863
297.173
313.807
329.782
345.109
359.821
374.014
387.558
400.426
412.579
423.923
434.264
443.221
450.068
453.46
450.987
438.651
410.775
361.7
34.7409
98.1617
127.759
144.066
157.53
171.971
188.07
205.369
223.421
241.769
260.017
277.86
295.071
311.624
327.532
342.806
357.474
371.636
385.157
398.012
410.158
421.5
431.844
440.809
447.667
451.069
448.607
436.295
408.496
359.649
33.9921
97.646
127.263
143.478
156.769
170.995
186.876
203.978
221.853
240.047
258.159
275.885
292.998
309.469
325.31
340.528
355.153
369.281
382.78
395.619
407.757
419.097
429.444
438.415
445.282
448.695
446.245
433.957
406.236
357.619
33.2503