/*--------------------------------*- C++ -*----------------------------------*\
  =========                 |
  \\      /  F ield         | OpenFOAM: The Open Source CFD Toolbox
   \\    /   O peration     | Website:  https://openfoam.org
    \\  /    A nd           | Version:  8
     \\/     M anipulation  |
\*---------------------------------------------------------------------------*/
FoamFile
{
    version     2.0;
    format      ascii;
    class       volScalarField;
    location    "1.2";
    object      N05;
}
// * * * * * * * * * * * * * * * * * * * * * * * * * * * * * * * * * * * * * //

dimensions      [0 0 0 0 0 0 0];

internalField   nonuniform List<scalar> 
6300
(
239.445
980.865
1049.67
1037.07
1030.14
1025.86
1022.93
1020.77
1019.07
1017.67
1016.48
1015.44
1014.5
1013.55
1011.79
1011.13
1010.54
1009.99
1009.5
1009.05
1008.64
1008.26
1007.91
1007.58
1007.28
1007.01
1006.77
1006.61
1006.78
1008.82
146.377
921.314
1095.28
1073.39
1060.15
1051.81
1046.03
1041.73
1038.31
1035.48
1033.06
1030.94
1029.01
1026.97
1023.55
1022.22
1021.02
1019.93
1018.94
1018.03
1017.19
1016.43
1015.72
1015.07
1014.46
1013.91
1013.42
1013.1
1013.46
1017.42
106.883
856.469
1129.04
1104.34
1087
1075.64
1067.58
1061.46
1056.57
1052.48
1048.98
1045.86
1042.86
1038.82
1035
1033.06
1031.3
1029.69
1028.23
1026.88
1025.64
1024.5
1023.45
1022.48
1021.57
1020.75
1020.02
1019.55
1020.08
1025.86
87.6108
801.063
1155.79
1131.64
1111.43
1097.77
1087.85
1080.2
1074.01
1068.81
1064.3
1060.24
1056.13
1050.36
1046.15
1043.62
1041.34
1039.24
1037.33
1035.56
1033.93
1032.43
1031.04
1029.75
1028.56
1027.47
1026.51
1025.9
1026.62
1034.13
78.1417
759.725
1177.35
1155.84
1133.49
1118.07
1106.66
1097.74
1090.44
1084.27
1078.87
1073.9
1068.69
1061.43
1056.85
1053.81
1051.04
1048.49
1046.17
1044
1042
1040.16
1038.45
1036.87
1035.41
1034.06
1032.89
1032.15
1033.08
1042.23
74.4017
731.96
1195.24
1177.66
1153.63
1136.82
1124.2
1114.21
1105.98
1098.95
1092.74
1086.91
1080.62
1072.07
1067.15
1063.63
1060.42
1057.46
1054.74
1052.2
1049.86
1047.7
1045.7
1043.84
1042.12
1040.54
1039.16
1038.31
1039.46
1050.18
74.0635
715.599
1210.59
1197.62
1172.2
1154.24
1140.63
1129.75
1120.71
1112.92
1105.95
1099.29
1091.99
1082.31
1077.08
1073.12
1069.5
1066.16
1063.07
1060.18
1057.52
1055.06
1052.78
1050.66
1048.69
1046.89
1045.32
1044.38
1045.76
1057.97
75.8799
708.216
1224.22
1216.07
1189.46
1170.54
1156.09
1144.46
1134.7
1126.23
1118.57
1111.11
1102.84
1092.18
1086.65
1082.3
1078.3
1074.59
1071.16
1067.95
1064.99
1062.24
1059.7
1057.34
1055.14
1053.12
1051.38
1050.36
1051.99
1065.62
79.2035
707.703
1236.73
1233.29
1205.62
1185.87
1170.7
1158.41
1148.03
1138.94
1130.6
1122.23
1112.07
1101.71
1095.9
1091.19
1086.83
1082.78
1079.02
1075.51
1072.27
1069.26
1066.47
1063.87
1061.46
1059.25
1057.35
1056.26
1058.14
1073.12
83.6952
712.413
1248.57
1249.45
1220.84
1200.35
1184.56
1171.69
1160.76
1151.09
1142.07
1132.75
1121.03
1110.92
1104.85
1099.8
1095.09
1090.73
1086.67
1082.87
1079.36
1076.11
1073.09
1070.27
1067.66
1065.26
1063.21
1062.08
1064.22
1080.48
89.1746
721.12
1260.05
1264.71
1235.24
1214.09
1197.74
1184.37
1172.92
1162.71
1153.02
1142.73
1129.73
1119.82
1113.5
1108.13
1103.11
1098.45
1094.1
1090.05
1086.29
1082.8
1079.56
1076.54
1073.74
1071.17
1068.99
1067.82
1070.24
1087.71
95.5457
732.924
1271.38
1279.19
1248.92
1227.17
1210.32
1196.49
1184.58
1173.84
1163.47
1152.24
1138.19
1128.43
1121.89
1116.21
1110.88
1105.95
1101.34
1097.04
1093.05
1089.34
1085.9
1082.69
1079.71
1076.98
1074.67
1073.48
1076.19
1094.81
102.758
747.166
1282.69
1292.99
1261.97
1239.66
1222.36
1208.11
1195.76
1184.5
1173.45
1161.34
1146.42
1136.78
1130.01
1124.03
1118.43
1113.24
1108.39
1103.85
1099.65
1095.74
1092.1
1088.71
1085.56
1082.68
1080.27
1079.07
1082.07
1101.78
110.788
763.354
1294.07
1306.19
1274.45
1251.63
1233.91
1219.26
1206.49
1194.7
1182.83
1168.83
1154.42
1144.87
1137.89
1131.62
1125.76
1120.34
1115.25
1110.5
1106.09
1101.99
1098.17
1094.61
1091.31
1088.29
1085.78
1084.58
1087.88
1108.63
119.624
781.117
1305.55
1318.84
1286.42
1263.12
1245.01
1229.99
1216.8
1204.45
1191.69
1176.17
1162.21
1152.71
1145.52
1138.99
1132.89
1127.24
1121.93
1116.98
1112.38
1108.1
1104.12
1100.4
1096.95
1093.81
1091.21
1090.03
1093.63
1115.37
129.264
800.162
1317.15
1331.01
1297.94
1274.18
1255.7
1240.32
1226.71
1213.78
1200.1
1183.34
1169.78
1160.33
1152.91
1146.14
1139.82
1133.95
1128.44
1123.3
1118.53
1114.08
1109.94
1106.07
1102.49
1099.23
1096.55
1095.4
1099.32
1121.98
139.708
820.257
1328.86
1342.75
1309.05
1284.84
1266.01
1250.27
1236.24
1222.7
1208.12
1190.37
1177.16
1167.72
1160.09
1153.08
1146.56
1140.49
1134.79
1129.47
1124.53
1119.93
1115.64
1111.64
1107.93
1104.56
1101.82
1100.71
1104.94
1128.49
150.96
841.211
1340.67
1354.09
1319.78
1295.14
1275.96
1259.88
1245.4
1231.24
1215.81
1197.24
1184.35
1174.9
1167.05
1159.83
1153.12
1146.86
1140.98
1135.5
1130.4
1125.65
1121.23
1117.1
1113.27
1109.81
1107.01
1105.96
1110.51
1134.89
163.02
862.865
1352.54
1365.08
1330.16
1305.11
1285.59
1269.15
1254.2
1239.24
1221.88
1203.97
1191.35
1181.87
1173.81
1166.39
1159.5
1153.06
1147.01
1141.38
1136.14
1131.25
1126.7
1122.45
1118.51
1114.96
1112.13
1111.14
1116.01
1141.18
175.889
885.083
1364.45
1375.73
1340.22
1314.76
1294.91
1278.1
1262.63
1246.79
1227.86
1210.56
1198.17
1188.63
1180.38
1172.77
1165.71
1159.1
1152.9
1147.12
1141.74
1136.73
1132.06
1127.7
1123.67
1120.04
1117.17
1116.25
1121.46
1147.36
189.568
907.749
1376.37
1386.09
1349.99
1324.13
1303.93
1286.74
1270.71
1253.95
1233.77
1217
1204.81
1195.19
1186.76
1178.98
1171.76
1164.99
1158.64
1152.73
1147.23
1142.1
1137.31
1132.85
1128.73
1125.03
1122.14
1121.31
1126.85
1153.45
204.051
930.759
1388.29
1396.16
1359.48
1333.23
1312.68
1295.08
1278.45
1260.78
1239.58
1223.31
1211.28
1201.57
1192.96
1185.03
1177.64
1170.72
1164.25
1158.21
1152.59
1147.35
1142.46
1137.91
1133.7
1129.94
1127.04
1126.31
1132.18
1159.44
219.334
954.026
1400.17
1405.98
1368.72
1342.07
1321.17
1303.11
1285.68
1265.92
1245.31
1229.49
1217.59
1207.77
1199
1190.91
1183.38
1176.32
1169.71
1163.56
1157.83
1152.49
1147.51
1142.87
1138.58
1134.78
1131.87
1131.24
1137.45
1165.33
235.409
977.47
1411.99
1415.56
1377.73
1350.67
1329.39
1310.82
1292.49
1271.01
1250.96
1235.53
1223.74
1213.79
1204.86
1196.63
1188.96
1181.77
1175.05
1168.79
1162.96
1157.52
1152.45
1147.73
1143.38
1139.53
1136.63
1136.12
1142.66
1171.12
252.264
1001.02
1423.73
1424.92
1386.51
1359.04
1337.36
1318.23
1298.93
1276.04
1256.52
1241.44
1229.72
1219.65
1210.58
1202.21
1194.4
1187.09
1180.26
1173.9
1167.97
1162.45
1157.3
1152.51
1148.1
1144.21
1141.32
1140.95
1147.83
1176.82
269.887
1024.63
1435.39
1434.08
1395.09
1367.2
1345.08
1325.33
1305.06
1281.01
1261.99
1247.23
1235.54
1225.34
1216.14
1207.64
1199.7
1192.28
1185.34
1178.89
1172.88
1167.27
1162.05
1157.19
1152.73
1148.82
1145.95
1145.71
1152.93
1182.43
288.262
1048.22
1446.93
1443.04
1403.46
1375.14
1352.54
1331.96
1309.39
1285.92
1267.37
1252.89
1241.21
1230.88
1221.55
1212.92
1204.87
1197.34
1190.31
1183.76
1177.67
1172
1166.71
1161.79
1157.28
1153.35
1150.52
1150.43
1157.98
1187.95
307.371
1071.77
1458.36
1451.82
1411.65
1382.87
1359.73
1338.18
1313.7
1290.78
1272.66
1258.42
1246.72
1236.28
1226.82
1218.07
1209.9
1202.27
1195.15
1188.53
1182.36
1176.62
1171.27
1166.3
1161.75
1157.81
1155.02
1155.08
1162.98
1193.38
327.195
1095.22
1469.67
1460.43
1419.66
1390.39
1366.64
1344.05
1317.96
1295.58
1277.87
1263.83
1252.08
1241.53
1231.95
1223.08
1214.81
1207.08
1199.88
1193.18
1186.95
1181.15
1175.74
1170.72
1166.15
1162.2
1159.46
1159.69
1167.92
1198.73
347.713
1118.55
1480.84
1468.89
1427.5
1397.69
1373.09
1347.96
1322.2
1300.32
1282.99
1269.11
1257.3
1246.64
1236.94
1227.96
1219.59
1211.77
1204.5
1197.73
1191.44
1185.57
1180.12
1175.06
1170.46
1166.52
1163.85
1164.24
1172.8
1203.99
368.901
1141.71
1491.88
1477.18
1435.16
1404.75
1379.14
1351.81
1326.4
1305
1288.01
1274.28
1262.38
1251.62
1241.81
1232.72
1224.25
1216.35
1209
1202.17
1195.82
1189.91
1184.41
1179.32
1174.7
1170.77
1168.17
1168.73
1177.64
1209.16
390.736
1164.69
1502.77
1485.34
1442.65
1411.58
1384.85
1355.61
1330.56
1309.63
1292.95
1279.32
1267.33
1256.46
1246.54
1237.35
1228.79
1220.82
1213.4
1206.51
1200.11
1194.15
1188.62
1183.5
1178.86
1174.95
1172.43
1173.18
1182.41
1214.25
413.193
1187.46
1513.52
1493.35
1449.96
1417.95
1388.35
1359.37
1334.7
1314.2
1297.8
1284.25
1272.15
1261.18
1251.15
1241.85
1233.21
1225.17
1217.69
1210.75
1204.3
1198.31
1192.73
1187.59
1182.95
1179.06
1176.63
1177.57
1187.14
1219.26
436.246
1210
1524.13
1501.22
1457.06
1423.94
1391.8
1363.1
1338.79
1318.7
1302.56
1289.06
1276.85
1265.76
1255.63
1246.24
1237.52
1229.41
1221.88
1214.89
1208.4
1202.37
1196.77
1191.61
1186.97
1183.11
1180.77
1181.92
1191.81
1224.19
459.869
1232.3
1534.58
1508.93
1463.73
1427.36
1395.2
1366.78
1342.85
1323.15
1307.22
1293.74
1281.41
1270.23
1259.99
1250.52
1241.72
1233.55
1225.97
1218.94
1212.41
1206.34
1200.72
1195.55
1190.91
1187.1
1184.86
1186.21
1196.43
1229.03
484.036
1254.34
1544.87
1516.24
1467.29
1430.69
1398.55
1370.43
1346.87
1327.53
1311.79
1298.3
1285.86
1274.57
1264.24
1254.68
1245.81
1237.58
1229.96
1222.88
1216.32
1210.23
1204.58
1199.41
1194.79
1191.02
1188.89
1190.45
1200.99
1233.8
508.72
1276.1
1554.71
1519.49
1470.73
1433.95
1401.86
1374.04
1350.86
1331.84
1316.26
1302.74
1290.19
1278.79
1268.36
1258.72
1249.79
1241.51
1233.84
1226.73
1220.14
1214.03
1208.37
1203.19
1198.59
1194.87
1192.86
1194.64
1205.5
1238.48
533.475
1289.1
1558.53
1522.65
1474.06
1437.13
1405.14
1377.63
1354.8
1336.09
1320.64
1307.06
1294.39
1282.9
1272.38
1262.66
1253.67
1245.34
1237.63
1230.49
1223.87
1217.74
1212.07
1206.9
1202.32
1198.66
1196.78
1198.78
1209.95
1243.09
547.688
1301.83
1562.25
1525.73
1477.29
1440.25
1408.37
1381.18
1358.7
1340.26
1324.93
1311.26
1298.48
1286.89
1276.28
1266.49
1257.44
1249.07
1241.32
1234.16
1227.52
1221.37
1215.7
1210.53
1205.98
1202.39
1200.64
1202.87
1214.35
1247.61
562.915
1314.25
1565.89
1528.72
1480.43
1443.3
1411.57
1384.7
1362.55
1344.37
1329.12
1315.34
1302.45
1290.76
1280.07
1270.21
1261.11
1252.7
1244.92
1237.73
1231.07
1224.92
1219.24
1214.08
1209.57
1206.06
1204.45
1206.91
1218.7
1252.06
578.978
1326.36
1569.41
1531.62
1483.47
1446.31
1414.74
1388.19
1366.35
1348.4
1333.21
1319.3
1306.3
1294.52
1283.74
1273.83
1264.68
1256.23
1248.42
1241.21
1234.54
1228.38
1222.71
1217.57
1213.1
1209.67
1208.2
1210.9
1222.99
1256.43
595.643
1338.14
1572.8
1534.43
1486.43
1449.25
1417.87
1391.63
1370.11
1352.37
1337.21
1323.14
1310.04
1298.16
1287.31
1277.34
1268.14
1259.66
1251.83
1244.6
1237.92
1231.76
1226.1
1220.98
1216.55
1213.21
1211.9
1214.84
1227.22
1260.72
612.738
1349.59
1576.08
1537.14
1489.3
1452.15
1420.97
1395.04
1373.81
1356.25
1341.1
1326.86
1313.65
1301.69
1290.77
1280.74
1271.5
1262.99
1255.15
1247.91
1241.22
1235.06
1229.41
1224.31
1219.94
1216.69
1215.54
1218.73
1231.4
1264.94
630.203
1360.69
1579.23
1539.77
1492.1
1454.99
1424.03
1398.41
1377.46
1360.06
1344.89
1330.46
1317.15
1305.11
1294.12
1284.04
1274.77
1266.23
1258.37
1251.12
1244.43
1238.27
1232.64
1227.58
1223.26
1220.12
1219.13
1222.57
1235.52
1269.07
647.898
1371.42
1582.23
1542.29
1494.8
1457.77
1427.04
1401.74
1381.05
1363.79
1348.55
1333.94
1320.54
1308.41
1297.36
1287.23
1277.93
1269.37
1261.5
1254.25
1247.56
1241.41
1235.8
1230.77
1226.52
1223.48
1222.67
1226.36
1239.59
1273.13
665.725
1381.76
1585.07
1544.71
1497.43
1460.5
1430.02
1405.02
1384.58
1367.42
1352.07
1337.3
1323.8
1311.6
1300.49
1290.32
1280.99
1272.42
1264.54
1257.28
1250.6
1244.47
1238.88
1233.9
1229.71
1226.79
1226.16
1230.1
1243.59
1277.11
683.624
1391.73
1587.75
1547.02
1499.96
1463.17
1432.95
1408.25
1388.04
1370.96
1355.45
1340.52
1326.93
1314.66
1303.5
1293.3
1283.95
1275.37
1267.48
1260.23
1253.56
1247.44
1241.88
1236.95
1232.84
1230.04
1229.59
1233.79
1247.54
1281.01
701.605
1401.32
1590.25
1549.21
1502.4
1465.78
1435.83
1411.43
1391.43
1374.38
1358.68
1343.61
1329.94
1317.61
1306.4
1296.17
1286.8
1278.22
1270.34
1263.09
1256.44
1250.34
1244.82
1239.93
1235.91
1233.23
1232.97
1237.43
1251.43
1284.83
719.638
1410.53
1592.56
1551.28
1504.75
1468.32
1438.65
1414.54
1394.73
1377.7
1361.76
1346.55
1332.81
1320.42
1309.18
1298.93
1289.56
1280.97
1273.1
1265.87
1259.23
1253.16
1247.67
1242.85
1238.91
1236.37
1236.3
1241.02
1255.26
1288.58
737.747
1419.37
1594.66
1553.2
1506.99
1470.78
1441.41
1417.58
1397.94
1380.88
1364.67
1349.35
1335.54
1323.11
1311.84
1301.58
1292.2
1283.62
1275.76
1268.55
1261.94
1255.9
1250.46
1245.7
1241.85
1239.45
1239.58
1244.56
1259.04
1292.24
756.007
1427.87
1596.53
1554.97
1509.1
1473.15
1444.09
1420.54
1401.04
1383.89
1367.4
1351.98
1338.12
1325.66
1314.37
1304.11
1294.74
1286.18
1278.34
1271.15
1264.57
1258.57
1253.18
1248.48
1244.74
1242.47
1242.81
1248.05
1262.75
1295.83
774.599
1436.08
1598.15
1556.54
1511.07
1475.41
1446.67
1423.39
1404
1386.67
1369.94
1354.44
1340.55
1328.07
1316.78
1306.52
1297.17
1288.63
1280.82
1273.66
1267.12
1261.16
1255.82
1251.2
1247.56
1245.45
1246
1251.49
1266.41
1299.34
793.766
1444.06
1599.49
1557.89
1512.87
1477.53
1449.14
1426.12
1406.79
1389.19
1372.26
1356.71
1342.8
1330.32
1319.04
1308.8
1299.48
1290.98
1283.2
1276.08
1269.58
1263.68
1258.4
1253.86
1250.33
1248.38
1249.14
1254.88
1270
1302.77
814.157
1451.94
1600.48
1558.97
1514.45
1479.49
1451.46
1428.69
1409.38
1391.41
1374.33
1358.77
1344.86
1332.4
1321.16
1310.96
1301.68
1293.22
1285.49
1278.42
1271.97
1266.12
1260.91
1256.46
1253.05
1251.25
1252.23
1258.23
1273.54
1306.12
836.334
1459.93
1601.09
1559.7
1515.75
1481.23
1453.58
1431.03
1411.59
1393.3
1376.13
1360.58
1346.72
1334.31
1323.12
1312.98
1303.76
1295.35
1287.68
1280.67
1274.28
1268.5
1263.36
1259.01
1255.72
1254.09
1255.29
1261.53
1277.02
1309.4
862.984
1468.41
1601.16
1559.92
1516.65
1482.64
1455.4
1433.04
1413.32
1394.81
1377.62
1362.14
1348.36
1336.03
1324.91
1314.85
1305.71
1297.38
1289.78
1282.84
1276.52
1270.81
1265.76
1261.5
1258.35
1256.89
1258.31
1264.8
1280.45
1312.6
895.136
1477.95
1600.6
1559.5
1517.04
1483.63
1456.83
1434.49
1414.47
1395.84
1378.73
1363.38
1349.73
1337.52
1326.52
1316.57
1307.53
1299.29
1291.78
1284.92
1278.68
1273.05
1268.09
1263.95
1260.93
1259.66
1261.3
1268.03
1283.83
1315.72
945.032
1489.72
1598.76
1557.87
1516.46
1483.82
1457.48
1435.15
1414.98
1396.39
1379.45
1364.31
1350.85
1338.81
1327.96
1318.15
1309.23
1301.1
1293.69
1286.93
1280.78
1275.25
1270.39
1266.37
1263.5
1262.41
1264.28
1271.24
1287.16
1318.78
1015.58
1505.28
1595.56
1554.88
1514.81
1483.03
1456.97
1434.68
1414.62
1396.27
1379.64
1364.81
1351.62
1339.81
1329.17
1319.53
1310.76
1302.78
1295.49
1288.84
1282.8
1277.38
1272.64
1268.75
1266.04
1265.15
1267.24
1274.44
1290.47
1321.79
1140.39
1525.09
1588.41
1548.57
1510.6
1480.21
1455.03
1433.25
1413.59
1395.67
1379.49
1365.06
1352.21
1340.68
1330.27
1320.84
1312.25
1304.42
1297.27
1290.74
1284.82
1279.51
1274.89
1271.14
1268.59
1267.89
1270.21
1277.62
1293.73
1324.71
1136.12
1497.84
1583.26
1555.53
1518.48
1487.17
1461.09
1438.61
1418.43
1400.09
1383.54
1368.79
1355.66
1343.91
1333.31
1323.71
1314.98
1307.03
1299.77
1293.15
1287.15
1281.77
1277.1
1273.29
1270.69
1269.96
1272.26
1279.68
1295.88
1327.06
1132.95
1486.74
1581.34
1560.62
1524.7
1492.98
1466.36
1443.46
1422.97
1404.35
1387.54
1372.53
1359.16
1347.18
1336.4
1326.64
1317.78
1309.71
1302.35
1295.64
1289.55
1284.1
1279.36
1275.49
1272.85
1272.07
1274.34
1281.77
1298.03
1329.4
1129.3
1481.67
1581.94
1565.43
1530.3
1498.3
1471.29
1448.04
1427.28
1408.4
1391.33
1376.07
1362.49
1350.33
1339.39
1329.49
1320.51
1312.33
1304.87
1298.08
1291.92
1286.4
1281.6
1277.68
1274.98
1274.17
1276.42
1283.85
1300.18
1331.72
1124.64
1479.67
1583.75
1569.95
1535.37
1503.16
1475.83
1452.31
1431.34
1412.28
1395.01
1379.55
1365.77
1353.45
1342.36
1332.34
1323.24
1314.96
1307.41
1300.53
1294.3
1288.72
1283.85
1279.87
1277.13
1276.28
1278.51
1285.94
1302.32
1334.02
1118.79
1479.01
1586.28
1574.4
1540.17
1507.77
1480.16
1456.4
1435.23
1416.01
1398.58
1382.93
1368.99
1356.52
1345.29
1335.15
1325.94
1317.57
1309.93
1302.98
1296.67
1291.03
1286.1
1282.07
1279.28
1278.39
1280.59
1288.02
1304.46
1336.31
1111.81
1478.98
1589.17
1578.75
1544.77
1512.18
1484.32
1460.34
1439
1419.63
1402.05
1386.24
1372.15
1359.54
1348.19
1337.94
1328.63
1320.17
1312.45
1305.42
1299.05
1293.33
1288.35
1284.26
1281.43
1280.49
1282.67
1290.1
1306.58
1338.59
1103.8
1479.16
1592.22
1583.03
1549.23
1516.46
1488.36
1464.18
1442.67
1423.16
1405.45
1389.49
1375.26
1362.53
1351.07
1340.71
1331.3
1322.75
1314.95
1307.85
1301.41
1295.63
1290.59
1286.45
1283.57
1282.59
1284.74
1292.17
1308.7
1340.85
1094.89
1479.36
1595.3
1587.22
1553.56
1520.61
1492.3
1467.92
1446.26
1426.62
1408.78
1392.69
1378.33
1365.48
1353.91
1343.45
1333.96
1325.32
1317.45
1310.27
1303.77
1297.93
1292.83
1288.64
1285.7
1284.69
1286.8
1294.23
1310.81
1343.1
1085.19
1479.45
1598.35
1591.31
1557.78
1524.67
1496.16
1471.59
1449.78
1430.01
1412.05
1395.83
1381.36
1368.4
1356.73
1346.18
1336.6
1327.88
1319.93
1312.69
1306.11
1300.21
1295.06
1290.81
1287.83
1286.77
1288.85
1296.27
1312.9
1345.33
1074.81
1479.39
1601.31
1595.3
1561.9
1528.65
1499.94
1475.2
1453.24
1433.35
1415.27
1398.94
1384.36
1371.29
1359.53
1348.88
1339.22
1330.42
1322.4
1315.09
1308.45
1302.49
1297.27
1292.98
1289.94
1288.84
1290.89
1298.3
1314.99
1347.55
1063.87
1479.12
1604.17
1599.18
1565.92
1532.54
1503.65
1478.75
1456.65
1436.64
1418.45
1402.01
1387.32
1374.16
1362.3
1351.57
1341.83
1332.95
1324.86
1317.48
1310.77
1304.75
1299.48
1295.13
1292.05
1290.9
1292.91
1300.33
1317.07
1349.75
1052.44
1478.64
1606.9
1602.95
1569.86
1536.37
1507.31
1482.25
1460.01
1439.88
1421.58
1405.04
1390.25
1377
1365.05
1354.24
1344.41
1335.46
1327.3
1319.85
1313.09
1307.01
1301.68
1297.28
1294.14
1292.94
1294.93
1302.34
1319.13
1351.95
1040.62
1477.94
1609.49
1606.62
1573.71
1540.11
1510.89
1485.68
1463.31
1443.07
1424.66
1408.03
1393.16
1379.81
1367.78
1356.89
1346.98
1337.96
1329.73
1322.22
1315.39
1309.25
1303.87
1299.4
1296.22
1294.97
1296.93
1304.34
1321.19
1354.12
1028.47
1477.01
1611.94
1610.17
1577.47
1543.78
1514.41
1489.05
1466.56
1446.21
1427.72
1410.99
1396.03
1382.6
1370.49
1359.51
1349.54
1340.45
1332.15
1324.57
1317.68
1311.48
1306.04
1301.52
1298.28
1297
1298.92
1306.34
1323.23
1356.29
1016.05
1475.86
1614.24
1613.61
1581.13
1547.38
1517.86
1492.37
1469.77
1449.32
1430.73
1413.92
1398.87
1385.37
1373.17
1362.12
1352.08
1342.91
1334.55
1326.91
1319.96
1313.7
1308.2
1303.62
1300.33
1299.01
1300.91
1308.32
1325.27
1358.44
1003.42
1474.49
1616.4
1616.95
1584.71
1550.9
1521.26
1495.64
1472.92
1452.38
1433.71
1416.82
1401.69
1388.11
1375.84
1364.71
1354.6
1345.37
1336.94
1329.23
1322.22
1315.9
1310.34
1305.71
1302.37
1301.01
1302.88
1310.3
1327.3
1360.58
990.62
1472.91
1618.4
1620.18
1588.2
1554.35
1524.59
1498.85
1476.04
1455.41
1436.65
1419.69
1404.49
1390.82
1378.48
1367.29
1357.1
1347.81
1339.31
1331.54
1324.47
1318.09
1312.47
1307.79
1304.4
1303
1304.85
1312.27
1329.32
1362.71
977.691
1471.13
1620.26
1623.3
1591.61
1557.74
1527.87
1502.02
1479.11
1458.4
1439.57
1422.53
1407.25
1393.52
1381.11
1369.84
1359.59
1350.23
1341.67
1333.84
1326.7
1320.27
1314.59
1309.86
1306.42
1304.98
1306.8
1314.23
1331.33
1364.82
964.669
1469.15
1621.98
1626.3
1594.94
1561.06
1531.09
1505.15
1482.15
1461.35
1442.45
1425.34
1410
1396.19
1383.71
1372.38
1362.06
1352.63
1344.01
1336.12
1328.92
1322.43
1316.7
1311.92
1308.43
1306.95
1308.75
1316.18
1333.33
1366.92
951.582
1466.97
1623.55
1629.21
1598.19
1564.32
1534.27
1508.23
1485.15
1464.28
1445.31
1428.13
1412.72
1398.85
1386.3
1374.9
1364.51
1355.02
1346.33
1338.38
1331.13
1324.58
1318.8
1313.96
1310.43
1308.91
1310.69
1318.12
1335.33
1369.01
938.457
1464.62
1624.99
1632.01
1601.37
1567.52
1537.4
1511.28
1488.11
1467.17
1448.13
1430.89
1415.41
1401.48
1388.86
1377.4
1366.95
1357.4
1348.65
1340.63
1333.32
1326.71
1320.88
1316
1312.42
1310.86
1312.62
1320.06
1337.31
1371.08
925.316
1462.09
1626.28
1634.71
1604.47
1570.66
1540.48
1514.28
1491.04
1470.03
1450.93
1433.63
1418.09
1404.09
1391.41
1379.88
1369.37
1359.76
1350.94
1342.87
1335.5
1328.84
1322.95
1318.02
1314.4
1312.81
1314.54
1321.99
1339.29
1373.14
912.177
1459.39
1627.45
1637.31
1607.5
1573.74
1543.52
1517.24
1493.93
1472.86
1453.7
1436.34
1420.74
1406.67
1393.93
1382.35
1371.78
1362.1
1353.22
1345.09
1337.67
1330.95
1325.02
1320.03
1316.37
1314.74
1316.46
1323.91
1341.26
1375.19
899.057
1456.54
1628.48
1639.81
1610.46
1576.77
1546.51
1520.17
1496.79
1475.66
1456.45
1439.03
1423.37
1409.24
1396.44
1384.8
1374.17
1364.43
1355.49
1347.3
1339.82
1333.06
1327.07
1322.04
1318.33
1316.67
1318.36
1325.82
1343.22
1377.23
885.969
1453.53
1629.38
1642.22
1613.35
1579.75
1549.46
1523.06
1499.62
1478.43
1459.16
1441.69
1425.97
1411.79
1398.93
1387.23
1376.54
1366.74
1357.75
1349.5
1341.97
1335.15
1329.11
1324.03
1320.28
1318.58
1320.26
1327.72
1345.17
1379.26
872.926
1450.38
1630.16
1644.54
1616.17
1582.67
1552.37
1525.92
1502.42
1481.18
1461.86
1444.33
1428.56
1414.32
1401.4
1389.64
1378.9
1369.03
1359.99
1351.69
1344.1
1337.23
1331.14
1326.01
1322.23
1320.49
1322.15
1329.62
1347.11
1381.27
859.938
1447.1
1630.81
1646.76
1618.93
1585.55
1555.24
1528.74
1505.19
1483.89
1464.52
1446.95
1431.12
1416.83
1403.86
1392.04
1381.24
1371.32
1362.21
1353.86
1346.22
1339.29
1333.16
1327.99
1324.16
1322.39
1324.03
1331.51
1349.04
1383.27
847.012
1443.68
1631.35
1648.9
1621.61
1588.37
1558.06
1531.52
1507.93
1486.58
1467.16
1449.54
1433.66
1419.32
1406.29
1394.42
1383.56
1373.59
1364.43
1356.02
1348.32
1341.35
1335.17
1329.95
1326.08
1324.28
1325.9
1333.39
1350.97
1385.26
834.156
1440.14
1631.77
1650.95
1624.24
1591.15
1560.85
1534.28
1510.63
1489.24
1469.78
1452.11
1436.18
1421.79
1408.71
1396.79
1385.87
1375.84
1366.63
1358.16
1350.42
1343.4
1337.17
1331.91
1328
1326.17
1327.77
1335.26
1352.88
1387.23
821.377
1436.49
1632.08
1652.91
1626.8
1593.87
1563.6
1536.99
1513.31
1491.88
1472.37
1454.66
1438.69
1424.24
1411.11
1399.13
1388.17
1378.08
1368.81
1360.3
1352.5
1345.43
1339.15
1333.85
1329.91
1328.04
1329.63
1337.13
1354.79
1389.2
808.678
1432.72
1632.28
1654.78
1629.29
1596.55
1566.3
1539.68
1515.96
1494.49
1474.94
1457.18
1441.17
1426.67
1413.49
1401.47
1390.45
1380.31
1370.99
1362.42
1354.58
1347.46
1341.13
1335.79
1331.8
1329.91
1331.48
1338.99
1356.69
1391.15
796.065
1428.85
1632.37
1656.57
1631.73
1599.18
1568.97
1542.33
1518.58
1497.07
1477.49
1459.69
1443.63
1429.08
1415.86
1403.78
1392.71
1382.52
1373.15
1364.53
1356.64
1349.47
1343.1
1337.71
1333.69
1331.77
1333.32
1340.84
1358.58
1393.09
783.541
1424.88
1632.36
1658.29
1634.1
1601.77
1571.61
1544.95
1521.17
1499.63
1480.01
1462.17
1446.07
1431.48
1418.21
1406.08
1394.96
1384.72
1375.3
1366.63
1358.69
1351.47
1345.06
1339.63
1335.57
1333.62
1335.16
1342.68
1360.46
1395.02
771.108
1420.82
1632.24
1659.92
1636.41
1604.31
1574.2
1547.54
1523.73
1502.16
1482.51
1464.63
1448.49
1433.86
1420.54
1408.37
1397.2
1386.9
1377.43
1368.72
1360.73
1353.47
1347.01
1341.54
1337.44
1335.46
1336.98
1344.52
1362.34
1396.93
758.77
1416.67
1632.03
1661.47
1638.67
1606.8
1576.76
1550.1
1526.26
1504.67
1484.98
1467.07
1450.89
1436.22
1422.85
1410.64
1399.42
1389.08
1379.55
1370.79
1362.76
1355.45
1348.95
1343.44
1339.31
1337.29
1338.8
1346.35
1364.2
1398.84
746.527
1412.44
1631.73
1662.94
1640.86
1609.25
1579.28
1552.62
1528.77
1507.15
1487.43
1469.49
1453.27
1438.56
1425.15
1412.89
1401.63
1391.23
1381.66
1372.86
1364.77
1357.42
1350.88
1345.33
1341.16
1339.12
1340.62
1348.17
1366.06
1400.73
734.381
1408.12
1631.33
1664.34
1643
1611.66
1581.77
1555.12
1531.25
1509.61
1489.86
1471.89
1455.64
1440.88
1427.43
1415.13
1403.82
1393.38
1383.76
1374.91
1366.78
1359.39
1352.8
1347.21
1343.01
1340.94
1342.42
1349.98
1367.91
1402.61
722.332
1403.74
1630.84
1665.67
1645.08
1614.02
1584.22
1557.59
1533.71
1512.04
1492.27
1474.27
1457.98
1443.19
1429.7
1417.35
1406
1395.51
1385.85
1376.95
1368.78
1361.34
1354.71
1349.08
1344.84
1342.75
1344.22
1351.79
1369.75
1404.48
710.383
1399.28
1630.27
1666.92
1647.1
1616.34
1586.63
1560.02
1536.14
1514.45
1494.66
1476.63
1460.31
1445.48
1431.95
1419.56
1408.16
1397.63
1387.92
1378.98
1370.76
1363.28
1356.61
1350.95
1346.67
1344.55
1346.01
1353.59
1371.58
1406.34
698.533
1394.76
1629.61
1668.1
1649.07
1618.61
1589.01
1562.43
1538.54
1516.84
1497.03
1478.97
1462.62
1447.75
1434.18
1421.75
1410.32
1399.74
1389.98
1380.99
1372.74
1365.21
1358.51
1352.8
1348.49
1346.35
1347.79
1355.38
1373.41
1408.18
686.782
1390.17
1628.87
1669.21
1650.98
1620.85
1591.36
1564.8
1540.91
1519.2
1499.37
1481.29
1464.9
1450
1436.4
1423.93
1412.45
1401.83
1392.03
1383
1374.7
1367.14
1360.39
1354.65
1350.31
1348.14
1349.57
1357.17
1375.22
1410.02
675.131
1385.53
1628.05
1670.25
1652.84
1623.04
1593.67
1567.15
1543.26
1521.54
1501.69
1483.59
1467.18
1452.24
1438.6
1426.1
1414.58
1403.91
1394.07
1385
1376.65
1369.05
1362.26
1356.48
1352.11
1349.92
1351.34
1358.94
1377.03
1411.84
663.579
1380.83
1627.15
1671.23
1654.65
1625.19
1595.95
1569.47
1545.59
1523.86
1503.99
1485.87
1469.43
1454.46
1440.79
1428.25
1416.69
1405.98
1396.1
1386.98
1378.6
1370.95
1364.13
1358.31
1353.91
1351.69
1353.1
1360.71
1378.83
1413.66
652.127
1376.09
1626.18
1672.14
1656.4
1627.3
1598.19
1571.76
1547.89
1526.15
1506.28
1488.13
1471.66
1456.67
1442.96
1430.38
1418.78
1408.03
1398.11
1388.95
1380.53
1372.85
1365.98
1360.13
1355.7
1353.45
1354.85
1362.48
1380.62
1415.46
640.773
1371.29
1625.13
1672.98
1658.1
1629.38
1600.4
1574.02
1550.16
1528.42
1508.54
1490.37
1473.88
1458.86
1445.11
1432.5
1420.87
1410.08
1400.11
1390.92
1382.45
1374.73
1367.83
1361.94
1357.48
1355.21
1356.6
1364.23
1382.4
1417.25
629.517
1366.45
1624.02
1673.76
1659.75
1631.41
1602.58
1576.26
1552.41
1530.67
1510.78
1492.6
1476.08
1461.03
1447.26
1434.61
1422.94
1412.11
1402.1
1392.87
1384.36
1376.6
1369.67
1363.75
1359.25
1356.96
1358.34
1365.98
1384.17
1419.02
618.36
1361.57
1622.83
1674.48
1661.35
1633.4
1604.73
1578.46
1554.64
1532.9
1513
1494.8
1478.27
1463.19
1449.38
1436.7
1425
1414.13
1404.08
1394.81
1386.27
1378.47
1371.5
1365.54
1361.01
1358.7
1360.07
1367.72
1385.94
1420.79
607.299
1356.65
1621.58
1675.13
1662.91
1635.35
1606.84
1580.64
1556.84
1535.11
1515.2
1496.99
1480.43
1465.33
1451.49
1438.78
1427.04
1416.13
1406.05
1396.74
1388.16
1380.32
1373.31
1367.33
1362.77
1360.44
1361.79
1369.46
1387.7
1422.55
596.335
1351.69
1620.26
1675.73
1664.41
1637.26
1608.92
1582.79
1559.02
1537.29
1517.38
1499.16
1482.58
1467.45
1453.59
1440.84
1429.07
1418.13
1408.01
1398.66
1390.04
1382.17
1375.13
1369.1
1364.52
1362.16
1363.51
1371.18
1389.45
1424.29
585.467
1346.7
1618.89
1676.26
1665.86
1639.14
1610.97
1584.92
1561.17
1539.45
1519.54
1501.31
1484.71
1469.56
1455.67
1442.89
1431.09
1420.11
1409.96
1400.57
1391.91
1384.01
1376.93
1370.87
1366.26
1363.88
1365.22
1372.9
1391.19
1426.03
574.693
1341.67
1617.45
1676.74
1667.26
1640.97
1612.99
1587.02
1563.3
1541.6
1521.68
1503.44
1486.83
1471.65
1457.74
1444.93
1433.1
1422.08
1411.89
1402.47
1393.78
1385.83
1378.72
1372.64
1367.99
1365.6
1366.93
1374.62
1392.92
1427.75
564.014
1336.62
1615.95
1677.16
1668.62
1642.77
1614.98
1589.09
1565.41
1543.72
1523.8
1505.55
1488.93
1473.73
1459.79
1446.96
1435.09
1424.04
1413.81
1404.35
1395.63
1387.65
1380.51
1374.39
1369.72
1367.3
1368.63
1376.32
1394.64
1429.46
553.429
1331.54
1614.4
1677.53
1669.93
1644.53
1616.94
1591.14
1567.5
1545.82
1525.9
1507.65
1491.01
1475.79
1461.83
1448.97
1437.07
1425.99
1415.73
1406.23
1397.47
1389.46
1382.28
1376.13
1371.44
1369
1370.32
1378.02
1396.36
1431.17
542.936
1326.43
1612.79
1677.84
1671.2
1646.26
1618.87
1593.16
1569.56
1547.9
1527.99
1509.73
1493.08
1477.84
1463.85
1450.96
1439.04
1427.92
1417.63
1408.1
1399.31
1391.26
1384.05
1377.87
1373.15
1370.69
1372
1379.71
1398.07
1432.86
532.536
1321.3
1611.13
1678.1
1672.42
1647.95
1620.77
1595.15
1571.6
1549.96
1530.05
1511.79
1495.13
1479.87
1465.86
1452.95
1441
1429.85
1419.52
1409.96
1401.13
1393.05
1385.81
1379.6
1374.85
1372.37
1373.68
1381.4
1399.77
1434.54
522.226
1316.15
1609.41
1678.3
1673.6
1649.6
1622.63
1597.12
1573.62
1552
1532.1
1513.84
1497.16
1481.89
1467.86
1454.92
1442.94
1431.76
1421.4
1411.8
1402.95
1394.84
1387.56
1381.32
1376.55
1374.05
1375.35
1383.07
1401.46
1436.21
512.006
1310.98
1607.65
1678.45
1674.73
1651.21
1624.47
1599.07
1575.61
1554.02
1534.13
1515.87
1499.18
1483.89
1469.84
1456.88
1444.87
1433.66
1423.27
1413.64
1404.75
1396.61
1389.3
1383.04
1378.23
1375.72
1377.01
1384.75
1403.14
1437.87
501.877
1305.79
1605.83
1678.56
1675.82
1652.79
1626.29
1600.99
1577.59
1556.01
1536.14
1517.88
1501.18
1485.88
1471.81
1458.82
1446.79
1435.55
1425.13
1415.47
1406.55
1398.37
1391.04
1384.74
1379.92
1377.38
1378.66
1386.41
1404.82
1439.51
491.835
1300.59
1603.97
1678.61
1676.87
1654.34
1628.07
1602.88
1579.54
1557.99
1538.13
1519.87
1503.17
1487.85
1473.76
1460.75
1448.7
1437.43
1426.98
1417.29
1408.33
1400.13
1392.76
1386.44
1381.59
1379.04
1380.31
1388.06
1406.48
1441.15
481.882
1295.37
1602.07
1678.61
1677.87
1655.85
1629.82
1604.75
1581.47
1559.95
1540.11
1521.85
1505.14
1489.81
1475.7
1462.67
1450.59
1439.3
1428.82
1419.1
1410.11
1401.88
1394.48
1388.13
1383.25
1380.69
1381.96
1389.71
1408.14
1442.78
472.016
1290.14
1600.12
1678.57
1678.83
1657.32
1631.55
1606.6
1583.38
1561.9
1542.06
1523.81
1507.1
1491.76
1477.63
1464.58
1452.48
1441.16
1430.64
1420.89
1411.88
1403.61
1396.19
1389.81
1384.91
1382.33
1383.59
1391.36
1409.79
1444.4
462.236
1284.89
1598.12
1678.48
1679.76
1658.77
1633.25
1608.42
1585.26
1563.82
1544
1525.75
1509.04
1493.69
1479.54
1466.48
1454.35
1443
1432.46
1422.68
1413.64
1405.34
1397.89
1391.48
1386.56
1383.96
1385.22
1392.99
1411.44
1446.01
452.541
1279.63
1596.09
1678.35
1680.64
1660.17
1634.92
1610.22
1587.13
1565.72
1545.92
1527.68
1510.96
1495.6
1481.45
1468.36
1456.21
1444.84
1434.27
1424.46
1415.39
1407.06
1399.58
1393.15
1388.21
1385.59
1386.84
1394.62
1413.07
1447.6
442.932
1274.37
1594.02
1678.17
1681.48
1661.55
1636.56
1612
1588.98
1567.6
1547.83
1529.59
1512.87
1497.51
1483.33
1470.23
1458.06
1446.66
1436.06
1426.23
1417.13
1408.78
1401.27
1394.81
1389.84
1387.21
1388.46
1396.24