/*--------------------------------*- C++ -*----------------------------------*\
  =========                 |
  \\      /  F ield         | OpenFOAM: The Open Source CFD Toolbox
   \\    /   O peration     | Website:  https://openfoam.org
    \\  /    A nd           | Version:  8
     \\/     M anipulation  |
\*---------------------------------------------------------------------------*/
FoamFile
{
    version     2.0;
    format      ascii;
    class       volScalarField;
    location    "1.2";
    object      P2;
}
// * * * * * * * * * * * * * * * * * * * * * * * * * * * * * * * * * * * * * //

dimensions      [0 0 -1 0 0 0 0];

internalField   nonuniform List<scalar> 
6300
(
0
0
0
0
0
0
0
0
0
0
0
0
0
0
0
0
0
0
0.8088
0.946228
1.09809
1.265
1.44752
1.64624
1.86178
2.09551
2.35372
2.67181
3.25977
5.7977
0
0
0
0
0
0
0
0
0
0
0
0
0
0
0
0
0
0
0.827007
0.963381
1.11364
1.27834
1.45806
1.65337
1.86497
2.09444
2.34858
2.66353
3.25095
5.78543
0
0
0
0
0
0
0
0
0
0
0
0
0
0
0
0
0
0
0.844509
0.981711
1.13262
1.29779
1.47776
1.67308
1.88446
2.11354
2.36714
2.68158
3.27108
5.80961
0
0
0
0
0
0
0
0
0
0
0
0
0
0
0
0
0
0
0.861258
0.998656
1.1495
1.31433
1.49367
1.68805
1.89813
2.12552
2.37723
2.69045
3.28387
5.82193
0
0
0
0
0
0
0
0
0
0
0
0
0
0
0
0
0
0
0.875858
1.01325
1.1639
1.32831
1.50699
1.70046
1.90941
2.1355
2.38591
2.69878
3.29676
5.83399
0
0
0
0
0
0
0
0
0
0
0
0
0
0
0
0
0
0.765692
0.890544
1.02791
1.17832
1.34225
1.52023
1.71277
1.92057
2.14537
2.39458
2.70733
3.31002
5.84519
0
0
0
0
0
0
0
0
0
0
0
0
0
0
0
0
0
0.780384
0.905378
1.04269
1.19282
1.35626
1.53351
1.7251
1.93175
2.15527
2.40331
2.71606
3.32344
5.85554
0
0
0
0
0
0
0
0
0
0
0
0
0
0
0
0
0
0.79529
0.920414
1.05765
1.20748
1.37039
1.54689
1.73751
1.943
2.16522
2.41211
2.72491
3.33689
5.86506
0
0
0
0
0
0
0
0
0
0
0
0
0
0
0
0
0
0.810441
0.93567
1.0728
1.22231
1.38467
1.56039
1.75002
1.95432
2.17522
2.42095
2.73382
3.35034
5.87382
0
0
0
0
0
0
0
0
0
0
0
0
0
0
0
0
0
0.82585
0.95116
1.08816
1.23732
1.3991
1.57402
1.76262
1.96569
2.18525
2.4298
2.74276
3.36373
5.88185
0
0
0
0
0
0
0
0
0
0
0
0
0
0
0
0
0
0.841531
0.966896
1.10374
1.25251
1.41368
1.58776
1.7753
1.97711
2.19528
2.43861
2.75167
3.37703
5.88915
0
0
0
0
0
0
0
0
0
0
0
0
0
0
0
0
0
0.857496
0.982885
1.11953
1.26789
1.42842
1.60162
1.78805
1.98855
2.20528
2.44737
2.76053
3.39022
5.89573
0
0
0
0
0
0
0
0
0
0
0
0
0
0
0
0
0
0.873755
0.999136
1.13556
1.28346
1.4433
1.61558
1.80085
1.99999
2.21523
2.45603
2.76931
3.40326
5.90157
0
0
0
0
0
0
0
0
0
0
0
0
0
0
0
0
0.775384
0.890317
1.01566
1.15182
1.29922
1.45833
1.62963
1.8137
2.01141
2.22511
2.46459
2.77799
3.41615
5.90665
0
0
0
0
0
0
0
0
0
0
0
0
0
0
0
0
0.792126
0.907193
1.03245
1.16831
1.31517
1.4735
1.64377
1.82657
2.0228
2.23488
2.47301
2.78654
3.42885
5.91095
0
0
0
0
0
0
0
0
0
0
0
0
0
0
0
0
0.809227
0.924392
1.04953
1.18503
1.33131
1.48879
1.65798
1.83945
2.03412
2.24454
2.48127
2.79495
3.44134
5.91443
0
0
0
0
0
0
0
0
0
0
0
0
0
0
0
0
0.826699
0.941921
1.0669
1.202
1.34763
1.50422
1.67226
1.85232
2.04537
2.25405
2.48935
2.80319
3.45361
5.91705
0
0
0
0
0
0
0
0
0
0
0
0
0
0
0
0
0.844554
0.95979
1.08455
1.2192
1.36413
1.51977
1.68658
1.86518
2.05653
2.2634
2.49723
2.81124
3.4656
5.91877
0
0
0
0
0
0
0
0
0
0
0
0
0
0
0
0
0.862803
0.978008
1.10251
1.23665
1.38082
1.53543
1.70095
1.878
2.06757
2.27257
2.5049
2.81909
3.47731
5.91954
0
0
0
0
0
0
0
0
0
0
0
0
0
0
0
0.775077
0.881458
0.996582
1.12076
1.25434
1.39768
1.55119
1.71535
1.89076
2.07848
2.28154
2.51232
2.8267
3.48869
5.9193
0
0
0
0
0
0
0
0
0
0
0
0
0
0
0
0.794055
0.900532
1.01552
1.13932
1.27227
1.41471
1.56705
1.72977
1.90347
2.08924
2.29029
2.51949
2.83406
3.4997
5.91798
0
0
0
0
0
0
0
0
0
0
0
0
0
0
0
0.813515
0.920035
1.03483
1.1582
1.29044
1.43191
1.58301
1.74419
1.91608
2.09983
2.29879
2.52637
2.84113
3.51032
5.91554
0
0
0
0
0
0
0
0
0
0
0
0
0
0
0
0.833471
0.93998
1.05453
1.17739
1.30886
1.44928
1.59904
1.7586
1.9286
2.11022
2.30702
2.53294
2.84789
3.52049
5.91189
0
0
0
0
0
0
0
0
0
0
0
0
0
0
0
0.853939
0.960378
1.07461
1.19689
1.32751
1.4668
1.61514
1.77299
1.941
2.12041
2.31496
2.53919
2.85431
3.53016
5.90697
0
0
0
0
0
0
0
0
0
0
0
0
0
0
0.775953
0.874936
0.981243
1.09509
1.21672
1.34641
1.48448
1.6313
1.78734
1.95326
2.13036
2.32259
2.54507
2.86035
3.5393
5.90069
0
0
0
0
0
0
0
0
0
0
0
0
0
0
0.797451
0.896478
1.00259
1.11598
1.23687
1.36555
1.5023
1.64751
1.80164
1.96536
2.14005
2.32988
2.55057
2.86598
3.54785
5.89297
0
0
0
0
0
0
0
0
0
0
0
0
0
0
0.819576
0.918582
1.02442
1.13727
1.25736
1.38492
1.52027
1.66376
1.81586
1.97727
2.14946
2.33681
2.55565
2.87117
3.55574
5.88371
0
0
0
0
0
0
0
0
0
0
0
0
0
0
0.84235
0.941265
1.04676
1.15899
1.27816
1.40452
1.53836
1.68002
1.83
1.98899
2.15856
2.34333
2.56028
2.87587
3.56293
5.87283
0
0
0
0
0
0
0
0
0
0
0
0
0
0.773235
0.865796
0.964545
1.06961
1.18113
1.2993
1.42436
1.55657
1.6963
1.84402
2.00048
2.16732
2.34943
2.56443
2.88004
3.56934
5.86022
0
0
0
0
0
0
0
0
0
0
0
0
0
0.797369
0.889936
0.988439
1.09298
1.2037
1.32077
1.44441
1.57489
1.71256
1.85791
2.01172
2.17572
2.35508
2.56807
2.88363
3.5749
5.84578
0
0
0
0
0
0
0
0
0
0
0
0
0
0.822301
0.914794
1.01296
1.11689
1.22671
1.34257
1.46468
1.5933
1.7288
1.87165
2.02268
2.18372
2.36023
2.57115
2.88659
3.57955
5.8294
0
0
0
0
0
0
0
0
0
0
0
0
0
0.84806
0.940393
1.03813
1.14135
1.25016
1.36469
1.48515
1.6118
1.74499
1.88521
2.03333
2.19129
2.36485
2.57363
2.88888
3.58319
5.81095
0
0
0
0
0
0
0
0
0
0
0
0
0.787721
0.874679
0.966758
1.06397
1.16637
1.27405
1.38713
1.50582
1.63036
1.7611
1.89856
2.04364
2.19839
2.3689
2.57546
2.89043
3.58576
5.79032
0
0
0
0
0
0
0
0
0
0
0
0
0.815324
0.902188
0.993911
1.09049
1.19195
1.29838
1.40989
1.52667
1.64896
1.77713
1.91167
2.05356
2.20499
2.37235
2.57662
2.89119
3.58716
5.76739
0
0
0
0
0
0
0
0
0
0
0
0
0.843951
0.930619
1.02188
1.11769
1.2181
1.32314
1.43295
1.54768
1.66759
1.79302
1.92451
2.06308
2.21105
2.37514
2.57703
2.89109
3.58729
5.74201
0
0
0
0
0
0
0
0
0
0
0
0.791721
0.873645
0.960002
1.05067
1.14561
1.24482
1.34835
1.4563
1.56884
1.68621
1.80876
1.93705
2.07214
2.21652
2.37724
2.57667
2.89008
3.58607
5.71406
0
0
0
0
0
0
0
0
0
0
0
0.822696
0.904446
0.990368
1.08032
1.17424
1.27211
1.37397
1.47993
1.59012
1.70479
1.8243
1.94923
2.08071
2.22137
2.3786
2.57546
2.88807
3.58339
5.68339
0
0
0
0
0
0
0
0
0
0
0
0.854948
0.936394
1.02174
1.11083
1.20358
1.29997
1.40001
1.5038
1.61149
1.7233
1.83961
1.96103
2.08873
2.22553
2.37917
2.57336
2.88499
3.57914
5.64986
0
0
0
0
0
0
0
0
0
0
0.80706
0.888531
0.969528
1.05416
1.14223
1.23365
1.32838
1.42644
1.5279
1.63291
1.7417
1.85465
1.97238
2.09617
2.22897
2.37889
2.5703
2.88079
3.57322
5.61332
0
0
0
0
0
0
0
0
0
0
0.842901
0.923496
1.00388
1.08763
1.17451
1.26443
1.35734
1.45324
1.55219
1.65435
1.75995
1.86936
1.98325
2.10296
2.23162
2.37771
2.56623
2.87536
3.56551
5.57364
0
0
0
0
0
0
0
0
0
0.7987
0.880505
0.959892
1.03949
1.12217
1.20768
1.29592
1.38681
1.48036
1.57663
1.67575
1.77797
1.88368
1.99357
2.10904
2.23343
2.37558
2.56109
2.86864
3.55591
5.53066
0
0
0
0
0
0
0
0
0
0.837755
0.919972
0.997763
1.07638
1.15778
1.24173
1.32807
1.41675
1.50776
1.60115
1.69706
1.79573
1.89755
2.00327
2.11437
2.23436
2.37243
2.55481
2.86055
3.54428
5.48424
0
0
0
0
0
0
0
0
0.802049
0.878918
0.961403
1.03715
1.11456
1.19447
1.27662
1.36086
1.44712
1.53538
1.6257
1.7182
1.81314
1.91091
2.0123
2.11888
2.23433
2.36822
2.54733
2.85101
3.53053
5.43423
0
0
0
0
0
0
0
0
0.84517
0.922318
1.00483
1.07806
1.15402
1.2322
1.31233
1.39423
1.47785
1.56314
1.65018
1.73909
1.83011
1.92368
2.02058
2.12249
2.23328
2.36289
2.5386
2.83993
3.51453
5.3805
0
0
0
0
0
0
0
0.821656
0.890848
0.968086
1.04876
1.12052
1.19476
1.27094
1.34878
1.4281
1.50884
1.59096
1.67451
1.75964
1.84657
1.93576
2.02804
2.12515
2.23117
2.35638
2.52855
2.82725
3.49617
5.32292
0
0
0
0
0
0
0.813693
0.870186
0.939248
1.01635
1.09453
1.1645
1.23671
1.3106
1.38587
1.46236
1.53997
1.61869
1.69857
1.77972
1.8624
1.94706
2.03458
2.12678
2.22793
2.34864
2.51713
2.81289
3.47536
5.26138
0
1.03026
0.91787
0.849048
0.821738
0.830088
0.866146
0.921872
0.990537
1.06723
1.1421
1.20993
1.27978
1.35107
1.42348
1.49686
1.57111
1.64621
1.7222
1.79921
1.87748
1.95749
2.04012
2.12732
2.22351
2.33963
2.50431
2.79681
3.45199
5.19576
1.29983
1.12929
0.99979
0.919085
0.884303
0.888426
0.922309
0.976929
1.04487
1.12082
1.19141
1.25671
1.32383
1.39217
1.46142
1.53141
1.60205
1.67331
1.74524
1.81795
1.89168
1.96692
2.04458
2.12669
2.21786
2.32932
2.49004
2.77893
3.42598
5.12597
1.43376
1.23824
1.08939
0.995272
0.952008
0.951238
0.982462
1.03556
1.10239
1.17717
1.24231
1.30464
1.36863
1.43367
1.49944
1.56576
1.63255
1.69978
1.76748
1.83575
1.90485
1.97523
2.04786
2.12484
2.21094
2.31769
2.47432
2.75924
3.39727
5.05193
1.58235
1.35836
1.18756
1.07824
1.02533
1.01889
1.04687
1.09795
1.16316
1.23627
1.29453
1.35342
1.41386
1.47523
1.53719
1.59959
1.66232
1.72534
1.78867
1.85241
1.91679
1.98227
2.04985
2.12168
2.20272
2.30472
2.45715
2.73774
3.36581
4.9736
1.74769
1.49108
1.29526
1.16867
1.10475
1.09172
1.11577
1.16419
1.22716
1.29552
1.34765
1.40259
1.45905
1.51638
1.57425
1.63248
1.69096
1.74964
1.80852
1.86767
1.92731
1.9879
2.05044
2.11717
2.19318
2.29044
2.43856
2.71445
3.3316
4.89093
1.93274
1.63829
1.41367
1.26729
1.19075
1.17001
1.18924
1.23421
1.29416
1.35346
1.40103
1.4515
1.50354
1.55649
1.61001
1.66389
1.71799
1.77226
1.82664
1.88121
1.93615
1.9919
2.0495
2.11123
2.1823
2.27489
2.41862
2.68944
3.2947
4.80394
2.14026
1.80176
1.54383
1.37471
1.28363
1.25388
1.26722
1.30775
1.36369
1.41129
1.45367
1.49918
1.54644
1.59475
1.64372
1.69313
1.74281
1.79266
1.8426
1.89266
1.943
1.99406
2.04687
2.10377
2.17008
2.25811
2.39746
2.66288
3.25524
4.71279
2.37752
1.98526
1.68748
1.49155
1.38342
1.34292
1.34896
1.38373
1.4344
1.46751
1.50413
1.54427
1.58645
1.62993
1.67428
1.71922
1.76452
1.81005
1.85568
1.90141
1.94736
1.99396
2.04224
2.0946
2.15643
2.24015
2.3752
2.63497
3.21345
4.61748
2.64388
2.18837
1.84403
1.61714
1.4894
1.43635
1.43354
1.46108
1.49648
1.51987
1.55042
1.58501
1.62208
1.66079
1.70062
1.74124
1.78237
1.8238
1.86538
1.90706
1.94893
1.99141
2.03553
2.08371
2.14145
2.2212
2.35218
2.60616
3.16997
4.51926
2.97292
2.4247
2.01714
1.75074
1.59879
1.53019
1.51612
1.53425
1.54893
1.56515
1.58944
1.61849
1.65056
1.68471
1.72032
1.75695
1.79427
1.832
1.86996
1.90804
1.94632
1.98519
2.02571
2.07033
2.12459
2.20097
2.32836
2.57673
3.12514
4.41732
3.31197
2.66722
2.19367
1.88587
1.70845
1.62308
1.59639
1.59459
1.58933
1.59955
1.61868
1.64321
1.67126
1.70172
1.7339
1.76727
1.80144
1.8361
1.87103
1.90608
1.94133
1.97715
2.01461
2.05622
2.10756
2.18111
2.30537
2.54844
3.08175
4.31933
3.90179
2.99125
2.38103
2.00714
1.79493
1.68793
1.6448
1.62274
1.61135
1.61638
1.63122
1.65211
1.67698
1.70462
1.7342
1.76516
1.79704
1.8295
1.86226
1.89519
1.92833
1.96206
1.99749
2.03717
2.08674
2.15869
2.28108
2.51986
3.03772
4.21457
4.16491
3.18852
2.53138
2.11785
1.87804
1.74851
1.6681
1.62846
1.61764
1.62338
1.63868
1.65977
1.68455
1.71182
1.74079
1.7709
1.80175
1.83299
1.86438
1.89579
1.92727
1.95924
1.99281
2.03058
2.07822
2.14813
2.26797
2.50221
3.0082
4.14643
5.91838
3.47536
2.49481
2.03053
1.78967
1.66864
1.61439
1.59505
1.59394
1.60392
1.62082
1.64211
1.66632
1.69255
1.72023
1.74891
1.77824
1.80792
1.83775
1.86762
1.89766
1.92834
1.96088
1.99802
2.04561
2.11609
2.2366
2.4687
2.9585
4.02827
5.72448
3.49572
2.52327
2.05232
1.81017
1.68675
1.62655
1.60146
1.59764
1.60626
1.62207
1.64223
1.66522
1.69016
1.71647
1.74372
1.77158
1.79979
1.82816
1.85664
1.88538
1.91491
1.94654
1.98311
2.03054
2.10137
2.22263
2.45501
2.94022
3.97878
4.63846
3.60881
2.83038
2.31106
1.9967
1.82054
1.7306
1.69183
1.68197
1.68721
1.69875
1.71277
1.7293
1.74829
1.76935
1.79199
1.81581
1.84043
1.86559
1.89112
1.91707
1.94388
1.97275
2.00636
2.05048
2.11746
2.2342
2.4616
2.94247
3.97336
4.5987
3.61754
2.89339
2.39943
2.08696
1.90302
1.80364
1.75647
1.73874
1.73275
1.73438
1.74236
1.75471
1.77019
1.78798
1.80749
1.82826
1.84992
1.87216
1.89484
1.91801
1.9421
1.96831
1.99934
2.041
2.10569
2.22047
2.44644
2.92529
3.94044
4.39278
3.58239
2.93704
2.47011
2.15979
1.96855
1.85998
1.80474
1.7818
1.77742
1.78011
1.78455
1.79346
1.80561
1.82018
1.83655
1.85427
1.87294
1.89228
1.91211
1.93247
1.95379
1.97725
2.00556
2.04454
2.1067
2.21936
2.44417
2.92325
3.93357
4.31399
3.56491
2.95922
2.51149
2.20718
2.01508
1.90292
1.84352
1.81668
1.80889
1.80825
1.81091
1.81808
1.82838
1.84097
1.85529
1.87089
1.8874
1.90453
1.92213
1.94026
1.95934
1.98058
2.00672
2.04366
2.10407
2.21557
2.44046
2.9211
3.92688
4.24552
3.54379
2.96888
2.53681
2.2385
2.04716
1.93333
1.87143
1.84202
1.83177
1.83111
1.83268
1.83859
1.84748
1.85853
1.8712
1.88507
1.89978
1.91507
1.9308
1.94702
1.9642
1.98356
2.00788
2.04317
2.10227
2.21318
2.43884
2.92194
3.92526
4.20087
3.52894
2.97476
2.55369
2.26004
2.06986
1.95541
1.89218
1.86118
1.8493
1.8473
1.8483
1.85341
1.86131
1.87122
1.88263
1.89513
1.90841
1.92222
1.93642
1.95109
1.96673
1.98459
2.00751
2.04161
2.09991
2.21078
2.43762
2.92336
3.92468
4.16638
3.51703
2.97837
2.56539
2.27513
2.08591
1.97124
1.90724
1.87526
1.8623
1.85932
1.86002
1.86462
1.8718
1.88082
1.89122
1.90261
1.91471
1.92728
1.94021
1.95362
1.968
1.98466
2.0065
2.03975
2.09762
2.20854
2.43573
2.9254
3.92505
4.14004
3.50816
2.98139
2.57431
2.28628
2.09761
1.98275
1.91824
1.88564
1.87197
1.86798
1.86859
1.87287
1.87954
1.88789
1.89749
1.90799
1.91911
1.93066
1.94255
1.95491
1.96827
1.98399
2.00503
2.0377
2.09542
2.20536
2.43506
2.92838
3.92568
4.1189
3.50143
2.98423
2.58159
2.29492
2.10635
1.99116
1.92624
1.8932
1.87906
1.8742
1.87484
1.87895
1.88527
1.89312
1.90208
1.91185
1.92217
1.93288
1.94391
1.95542
1.96796
1.98294
2.00338
2.0357
2.09198
2.20309
2.43529
2.93198
3.92643
4.10159
3.49637
2.98715
2.58795
2.30198
2.11311
1.99742
1.93205
1.89865
1.88361
1.87854
1.87929
1.88334
1.88943
1.89691
1.90538
1.91457
1.92425
1.93427
1.9446
1.9554
1.9673
1.9817
2.00171
2.03275
2.08916
2.20154
2.43617
2.93598
3.9272
4.08707
3.49255
2.99022
2.59378
2.30803
2.11853
2.00216
1.93618
1.90171
1.8863
1.88148
1.88238
1.88644
1.89239
1.89961
1.9077
1.91643
1.92559
1.93505
1.94481
1.95506
1.96643
1.98039
1.99933
2.02993
2.08691
2.20055
2.43755
2.94025
3.92798
4.07465
3.48967
2.99342
2.59929
2.31344
2.12305
2.00477
1.93768
1.9032
1.88796
1.88334
1.8844
1.88851
1.8944
1.90144
1.90926
1.91763
1.92637
1.93539
1.94468
1.95449
1.96545
1.9785
1.99674
2.02754
2.08511
2.20001
2.4393
2.94469
3.92877
4.06384
3.48749
2.99674
2.60459
2.31843
2.12539
2.00622
1.93863
1.904
1.88883
1.88439
1.88559
1.88979
1.89567
1.90259
1.91021
1.9183
1.92673
1.93539
1.94432
1.95376
1.96394
1.97624
1.99449
2.02552
2.08368
2.19981
2.44135
2.94925
3.92958
4.05431
3.48584
3.00013
2.60976
2.32205
2.12767
2.00745
1.93921
1.90431
1.88913
1.8848
1.88615
1.89044
1.89634
1.90319
1.91067
1.91856
1.92674
1.93512
1.94376
1.95252
1.962
1.97421
1.9925
2.02378
2.08255
2.19991
2.44362
2.9539
3.93043
4.04578
3.48459
3.00355
2.61482
2.32564
2.12996
2.00855
1.93953
1.90426
1.88899
1.88473
1.8862
1.89059
1.89652
1.90335
1.91074
1.91849
1.92647
1.93465
1.94273
1.95088
1.96022
1.97238
1.99073
2.02228
2.08166
2.20023
2.44609
2.95862
3.93133
4.03806
3.48365
3.00699
2.61975
2.32934
2.13228
2.00959
1.93969
1.90395
1.88853
1.8843
1.88586
1.89034
1.89633
1.90315
1.91049
1.91814
1.92599
1.9338
1.94132
1.94932
1.95856
1.9707
1.98915
2.02098
2.08096
2.20074
2.4487
2.96338
3.93227
4.03099
3.48293
3.01041
2.62414
2.33312
2.13465
2.01061
1.93975
1.90347
1.88783
1.88358
1.88521
1.88978
1.89583
1.90267
1.90998
1.91756
1.92531
1.93254
1.93993
1.94783
1.95701
1.96915
1.98771
2.01983
2.08043
2.2014
2.45144
2.96818
3.93325
4.02446
3.48238
3.0138
2.62857
2.33697
2.13707
2.01163
1.93975
1.90287
1.88696
1.88264
1.88432
1.88896
1.89507
1.90195
1.90925
1.9168
1.92418
1.93127
1.93856
1.94638
1.95553
1.9677
1.98639
2.01881
2.08003
2.2022
2.45428
2.97298
3.93427
4.01837
3.48195
3.01713
2.63303
2.34087
2.13954
2.01267
1.93972
1.90218
1.88595
1.88154
1.88324
1.88795
1.89412
1.90104
1.90835
1.91588
1.92297
1.92999
1.93721
1.94498
1.95412
1.96634
1.98517
2.0179
2.07974
2.2031
2.4572
2.97779
3.93531
4.01265
3.48161
3.0204
2.63748
2.3448
2.14207
2.01375
1.93969
1.90145
1.88486
1.88032
1.88202
1.88678
1.89301
1.89998
1.90731
1.91484
1.92171
1.92868
1.93586
1.94361
1.95276
1.96503
1.98402
2.01707
2.07954
2.2041
2.4602
2.9826
3.93638
4.00723
3.48132
3.02359
2.64191
2.34876
2.14464
2.01486
1.93966
1.90069
1.88371
1.87901
1.88069
1.88549
1.89178
1.89879
1.90616
1.91357
1.92042
1.92736
1.93452
1.94226
1.95143
1.96379
1.98294
2.01631
2.07941
2.20517
2.46325
2.98739
3.93746
4.00208
3.48107
3.0267
2.64629
2.35272
2.14725
2.01601
1.93966
1.89992
1.88251
1.87763
1.87927
1.8841
1.89044
1.8975
1.90491
1.91225
1.91909
1.92602
1.93318
1.94093
1.95014
1.96258
1.9819
2.01561
2.07935
2.20631
2.46634
2.99215
3.93855
3.99714
3.48084
3.02973
2.65063
2.35668
2.1499
2.01721
1.93969
1.89915
1.88129
1.87621
1.87779
1.88264
1.88903
1.89614
1.90359
1.91089
1.91774
1.92467
1.93184
1.93962
1.94888
1.96141
1.98091
2.01496
2.07935
2.2075
2.46947
2.99688
3.93963
3.99239
3.48062
3.03266
2.65491
2.36064
2.15258
2.01846
1.93974
1.8984
1.88007
1.87476
1.87627
1.88113
1.88756
1.89471
1.9022
1.9095
1.91636
1.92332
1.9305
1.93831
1.94763
1.96027
1.97996
2.01435
2.07939
2.20874
2.47262
3.00158
3.9407
3.98779
3.4804
3.03551
2.65912
2.36457
2.15529
2.01975
1.93984
1.89767
1.87884
1.87329
1.87472
1.87958
1.88604
1.89324
1.90078
1.90809
1.91497
1.92195
1.92916
1.93702
1.9464
1.95915
1.97903
2.01377
2.07947
2.21002
2.47579
3.00623
3.94177
3.98334
3.48016
3.03826
2.66326
2.36849
2.15803
2.02108
1.93998
1.89696
1.87763
1.87182
1.87315
1.87799
1.88449
1.89174
1.89932
1.90665
1.91357
1.92057
1.92783
1.93573
1.94518
1.95805
1.97813
2.01323
2.07958
2.21134
2.47898
3.01083
3.94281
3.979
3.4799
3.04092
2.66733
2.37238
2.16078
2.02245
1.94016
1.89628
1.87643
1.87035
1.87157
1.87639
1.88291
1.8902
1.89782
1.9052
1.91215
1.91919
1.92649
1.93445
1.94398
1.95696
1.97724
2.01271
2.07973
2.21268
2.48218
3.01538
3.94382
3.97477
3.47963
3.04349
2.67131
2.37624
2.16355
2.02386
1.94037
1.89564
1.87524
1.86888
1.86998
1.87478
1.88132
1.88865
1.89632
1.90373
1.91072
1.91781
1.92515
1.93317
1.94279
1.95589
1.97638
2.01221
2.07989
2.21406
2.48538
3.01988
3.94481
3.97063
3.47933
3.04597
2.67522
2.38006
2.16633
2.0253
1.94063
1.89503
1.87408
1.86743
1.8684
1.87317
1.87972
1.88708
1.89479
1.90226
1.9093
1.91643
1.92382
1.9319
1.9416
1.95483
1.97553
2.01172
2.08009
2.21545
2.48858
3.02432
3.94577
3.96658
3.479
3.04837
2.67904
2.38385
2.16912
2.02679
1.94093
1.89445
1.87295
1.86599
1.86682
1.87155
1.87812
1.88551
1.89326
1.90079
1.90787
1.91505
1.92249
1.93064
1.94042
1.95379
1.97469
2.01126
2.0803
2.21686
2.49178
3.0287
3.94669
3.9626
3.47865
3.05067
2.68278
2.3876
2.17192
2.0283
1.94127
1.89391
1.87184
1.86456
1.86525
1.86994
1.87652
1.88394
1.89173
1.89931
1.90644
1.91367
1.92117
1.92938
1.93925
1.95275
1.97387
2.01081
2.08053
2.21829
2.49497
3.03302
3.94758
3.95869
3.47827
3.0529
2.68644
2.3913
2.17472
2.02985
1.94165
1.89341
1.87077
1.86316
1.8637
1.86834
1.87491
1.88237
1.89019
1.89784
1.90501
1.91229
1.91985
1.92813
1.93809
1.95172
1.97306
2.01037
2.08078
2.21973
2.49815
3.03728
3.94843
3.95485
3.47786
3.05504
2.69002
2.39496
2.17752
2.03142
1.94207
1.89294
1.86972
1.86178
1.86216
1.86674
1.87332
1.8808
1.88866
1.89636
1.90358
1.91091
1.91853
1.92688
1.93693
1.9507
1.97226
2.00995
2.08104
2.22119
2.50133
3.04148
3.94924
3.95106
3.47742
3.05711
2.69353
2.39858
2.18031
2.03302
1.94252
1.89251
1.8687
1.86042
1.86064
1.86516
1.87173
1.87923
1.88713
1.89489
1.90216
1.90954
1.91722
1.92564
1.93578
1.94969
1.97146
2.00954
2.08132
2.22266
2.50449
3.04562
3.95001
3.94732
3.47696
3.0591
2.69695
2.40216
2.18311
2.03464
1.94301
1.89212
1.86771
1.85909
1.85913
1.86359
1.87015
1.87768
1.88561
1.89343
1.90075
1.90818
1.91591
1.9244
1.93464
1.94868
1.97068
2.00914
2.08161
2.22413
2.50764
3.04969
3.95074
3.94364
3.47647
3.06102
2.7003
2.40568
2.18589
2.03629
1.94354
1.89176
1.86676
1.85778
1.85765
1.86203
1.86859
1.87613
1.88409
1.89197
1.89934
1.90682
1.91461
1.92317
1.9335
1.94768
1.9699
2.00875
2.08191
2.22562
2.51077
3.0537
3.95144
3.94
3.47595
3.06287
2.70357
2.40917
2.18868
2.03795
1.9441
1.89144
1.86583
1.8565
1.85618
1.86049
1.86703
1.87459
1.88258
1.89052
1.89793
1.90547
1.91331
1.92194
1.93237
1.94669
1.96913
2.00837
2.08223
2.22711
2.51389
3.05765
3.95209
3.9364
3.4754
3.06465
2.70676
2.4126
2.19145
2.03964
1.94469
1.89115
1.86494
1.85524
1.85473
1.85897
1.86549
1.87306
1.88108
1.88908
1.89654
1.90412
1.91203
1.92073
1.93125
1.9457
1.96837
2.008
2.08255
2.22861
2.51699
3.06154
3.9527
3.93285
3.47483
3.06636
2.70989
2.41599
2.19421
2.04134
1.94531
1.89089
1.86407
1.85401
1.85331
1.85746
1.86396
1.87155
1.87959
1.88765
1.89515
1.90278
1.91075
1.91952
1.93013
1.94473
1.96762
2.00764
2.08288
2.23012
2.52007
3.06536
3.95327
3.92934
3.47424
3.06802
2.71294
2.41934
2.19696
2.04306
1.94596
1.89067
1.86324
1.8528
1.8519
1.85597
1.86245
1.87004
1.87812
1.88623
1.89377
1.90145
1.90947
1.91831
1.92902
1.94375
1.96687
2.00729
2.08323
2.23163
2.52313
3.06912
3.95381
3.92587
3.47362
3.06961
2.71593
2.42264
2.1997
2.04479
1.94664
1.89047
1.86243
1.85162
1.85052
1.8545
1.86095
1.86855
1.87665
1.88481
1.8924
1.90013
1.9082
1.91711
1.92792
1.94279
1.96613
2.00694
2.08358
2.23314
2.52618
3.07283
3.9543
3.92243
3.47299
3.07114
2.71885
2.42589
2.20242
2.04654
1.94734
1.89031
1.86165
1.85046
1.84915
1.85304
1.85947
1.86707
1.87519
1.88341
1.89104
1.89881
1.90694
1.91592
1.92682
1.94183
1.9654
2.00661
2.08395
2.23466
2.52921
3.07647
3.95476
3.91902
3.47233
3.07261
2.7217
2.4291
2.20513
2.04829
1.94808
1.89019
1.86091
1.84932
1.84781
1.8516
1.858
1.86561
1.87375
1.88201
1.88968
1.89751
1.90569
1.91474
1.92573
1.94087
1.96468
2.00628
2.08432
2.23619
2.53222
3.08005
3.95518
3.91566
3.47165
3.07404
2.72449
2.43226
2.20783
2.05006
1.94883
1.89009
1.86019
1.84821
1.84648
1.85017
1.85654
1.86415
1.87231
1.88063
1.88834
1.89621
1.90445
1.91356
1.92464
1.93993
1.96396
2.00596
2.0847
2.23771
2.53521
3.08357
3.95556
3.91232
3.47095
3.0754
2.72722
2.43538
2.21051
2.05184
1.94961
1.89001
1.8595
1.84713
1.84518
1.84877
1.8551
1.86271
1.87089
1.87925
1.887
1.89492
1.90321
1.91239
1.92356
1.93899
1.96325
2.00565
2.0851
2.23925
2.53818
3.08704
3.95591
3.90902
3.47024
3.07672
2.72989
2.43846
2.21318
2.05362
1.95042
1.88997
1.85883
1.84607
1.8439
1.84738
1.85367
1.86128
1.86948
1.87788
1.88567
1.89364
1.90198
1.91122
1.92249
1.93805
1.96255
2.00535
2.0855
2.24078
2.54113
3.09045
3.95622
3.90575
3.46951
3.07799
2.73249
2.44149
2.21582
2.05542
1.95124
1.88996
1.8582
1.84503
1.84263
1.846
1.85226
1.85987
1.86808
1.87653
1.88435
1.89236
1.90075
1.91007
1.92142
1.93713
1.96185
2.00506
2.0859
2.24232
2.54406
3.09381
3.95649
3.90251
3.46876
3.07921
2.73505
2.44448
2.21845
2.05722
1.95209
1.88997
1.85759
1.84401
1.84139
1.84465
1.85086
1.85846
1.86669
1.87518
1.88305
1.89109
1.89954
1.90891
1.92036
1.93621
1.96116
2.00477
2.08632
2.24386
2.54697
3.09711
3.95673
3.8993
3.46799
3.08039
2.7375
2.44742
2.22107
2.05902
1.95296
1.89
1.857
1.84302
1.84016
1.84331
1.84947
1.85707
1.86531
1.87383
1.88175
1.88983
1.89833
1.90777
1.91931
1.93529
1.96048
2.00449
2.08675
2.2454
2.54986
3.10036
3.95694
3.89612
3.46721
3.08152
2.73989
2.45032
2.22366
2.06083
1.95385
1.89006
1.85644
1.84206
1.83896
1.84198
1.8481
1.8557
1.86395
1.87249
1.88045
1.88858
1.89713
1.90663
1.91826
1.93438
1.9598
2.00422
2.08718
2.24694
2.55273
3.10355
3.95711
3.89296
3.46642
3.08261
2.74223
2.45319
2.22623
2.06264
1.95475
1.89015
1.8559
1.84111
1.83777
1.84067
1.84675
1.85433
1.86259
1.87116
1.87917
1.88734
1.89593
1.9055
1.91722
1.93348
1.95913
2.00396
2.08762
2.24848
2.55558
3.10669
3.95725
3.88984
3.46561
3.08366
2.74452
2.45601
2.22879
2.06446
1.95567
1.89026
1.85539
1.84018
1.8366
1.83938
1.8454
1.85298
1.86125
1.86984
1.8779
1.8861
1.89475
1.90438
1.91618
1.93258
1.95847
2.00371
2.08807
2.25003
2.55841
3.10978
3.95737
3.88674
3.4648
3.08467
2.74677
2.45879
2.23133
2.06628
1.95661
1.89039
1.85491
1.83928
1.83545
1.83811
1.84407
1.85163
1.85992
1.86852
1.87663
1.88488
1.89356
1.90326
1.91515
1.93169
1.95782
2.00346
2.08853
2.25158
2.56122
3.11282
3.95745
3.88367
3.46397
3.08564
2.74896
2.46153
2.23385
2.0681
1.95756
1.89055
1.85444
1.8384
1.83432
1.83684
1.84276
1.8503
1.85859
1.86722
1.87537
1.88366
1.89239
1.90215
1.91413
1.93081
1.95717
2.00323
2.08899
2.25313
2.564
3.1158
3.9575
3.88062
3.46313
3.08657
2.75111
2.46424
2.23635
2.06992
1.95853
1.89073
1.854
1.83753
1.8332
1.8356
1.84145
1.84898
1.85728
1.86592
1.87412
1.88244
1.89122
1.90104
1.91311
1.92993
1.95653
2.003
2.08947
2.25467
2.56677
3.11874
3.95752
3.8776
3.46227
3.08747
2.75322
2.4669
2.23883
2.07174
1.95952
1.89092
1.85358
1.83669
1.83211
1.83437
1.84016
1.84768
1.85598
1.86464
1.87288
1.88124
1.89006
1.89994
1.9121
1.92906
1.95589
2.00278
2.08995
2.25622
2.56952
3.12163
3.95751
3.8746
3.46141
3.08834
2.75528
2.46953
2.24129
2.07356
1.96052
1.89114
1.85318
1.83587
1.83103
1.83315
1.83888
1.84638
1.85469
1.86337
1.87165
1.88004
1.88891
1.89885
1.9111
1.9282
1.95527
2.00256
2.09043
2.25777
2.57224
3.12448
3.95747
3.87163
3.46054
3.08917
2.7573
2.47211
2.24373
2.07538
1.96153
1.89138
1.85281
1.83507
1.82996
1.83194
1.83762
1.84509
1.85341
1.8621
1.87042
1.87885
1.88777
1.89776
1.9101
1.92734
1.95465
2.00236
2.09093
2.25932
2.57495
3.12727
3.95741
3.86869
3.45966
3.08997
2.75928
2.47467
2.24615
2.0772
1.96255
1.89164
1.85245
1.83428
1.82892
1.83076
1.83636
1.84382
1.85214
1.86084
1.86921
1.87767
1.88663
1.89668
1.90911
1.92649
1.95403
2.00216
2.09143
2.26087
2.57763
3.13003
3.95732
3.86576
3.45877
3.09074
2.76121
2.47719
2.24856
2.07902
1.96359
1.89192
1.85212
1.83352
1.82789
1.82958
1.83512
1.84256
1.85087
1.85959
1.868
1.87649
1.88549
1.89561
1.90812
1.92564
1.95343
2.00197
2.09194
2.26242
2.5803
3.13273
3.9572
3.86286
3.45788
3.09147
2.76311
2.47967
2.25094
2.08084
1.96464
1.89221
1.8518
1.83278
1.82687
1.82842
1.83389
1.8413
1.84962
1.85835
1.8668
1.87532
1.88437
1.89454
1.90714
1.9248
1.95283
2.00179
2.09246
2.26397
2.58295
3.1354
3.95706
3.85998
3.45697
3.09218
2.76497
2.48211
2.2533
2.08265
1.9657
1.89253
1.85151
1.83205
1.82588
1.82727
1.83268
1.84006
1.84838
1.85713
1.8656
1.87416
1.88325
1.89348
1.90616
1.92397
1.95223
2.00161
2.09298
2.26551
2.58557
3.13802
3.95689
3.85713
3.45606
3.09286
2.76679
2.48452
2.25564
2.08446
1.96676
1.89286
1.85123
1.83134
1.8249
1.82614
1.83147
1.83883
1.84714
1.8559
1.86442
1.87301
1.88213
1.89242
1.90519
1.92314
1.95165
2.00145
2.09351
2.26706
2.58818
3.14059
3.9567
3.85429
3.45515
3.09352
2.76858
2.4869
2.25796
2.08627
1.96784
1.8932
1.85098
1.83065
1.82393
1.82502
1.83027
1.8376
1.84592
1.85469
1.86324
1.87186
1.88103
1.89137
1.90423
1.92232
1.95107
2.00129
2.09404
2.26861
2.59076
3.14312
3.95649
3.85148
3.45423
3.09414
2.77033
2.48925
2.26027
2.08807
1.96893
1.89357
1.85074
1.82998
1.82298
1.82392
1.82909
1.83639
1.8447
1.85348
1.86206
1.87072
1.87993
1.89033
1.90328
1.92151
1.9505
2.00114
2.09459
2.27016
2.59333
3.14562
3.95625
3.84869
3.4533
3.09474
2.77204
2.49156
2.26255
2.08987
1.97002
1.89394
1.85052
1.82932
1.82205
1.82282
1.82792
1.83519
1.84349
1.85228
1.8609
1.86958
1.87883
1.88929
1.90232
1.9207
1.94994
2.001
2.09514
2.2717
2.59587
3.14807
3.95599
3.84592
3.45236
3.09532
2.77372
2.49384
2.26481
2.09167
1.97113
1.89434
1.85032
1.82869
1.82113
1.82174
1.82676
1.83399
1.8423
1.8511
1.85974
1.86846
1.87774
1.88826
1.90138
1.91989
1.94938
2.00086
2.09569
2.27324
2.5984
3.15048
3.95571
3.84317
3.45142
3.09587
2.77537
2.49609
2.26706
2.09346
1.97224
1.89475
1.85013
1.82807
1.82022
1.82067
1.82561
1.83281
1.8411
1.84991
1.85859
1.86734
1.87666
1.88723
1.90044
1.9191
1.94883
2.00073
2.09626
2.27479
2.6009
3.15285
3.9554
3.84044
3.45047
3.0964
2.77698
2.4983
2.26928
2.09524
1.97336
1.89517
1.84997
1.82746
1.81933
1.81962
1.82447
1.83164
1.83992
1.84874
1.85745
1.86622
1.87559
1.88621
1.89951
1.91831
1.94828
2.00061
2.09682
2.27633
2.60339
3.15519
3.95507
3.83774
3.44952
3.0969
2.77857
2.50049
2.27148
2.09702
1.97448
1.89561
1.84981
1.82687
1.81846
1.81857
1.82334
1.83047
1.83875
1.84757
1.85631
1.86511
1.87451
1.8852
1.89858
1.91752
1.94775
2.0005
2.0974
2.27787
2.60586
3.15748
3.95473
3.83504
3.44857
3.09739
2.78012
2.50265
2.27367
2.0988
1.97561
1.89606
1.84968
1.8263
1.8176
1.81754
1.82222
1.82932
1.83758
1.84642
1.85518
1.86401
1.87345
1.88419
1.89765
1.91674
1.94722
2.00039
2.09798
2.2794
2.6083
3.15974
3.95436
3.83238
3.44761
3.09785
2.78164
2.50478
2.27584
2.10057
1.97675
1.89653
1.84956
1.82575
1.81675
1.81652
1.82111
1.82817
1.83643
1.84526
1.85405
1.86291
1.87239
1.88318
1.89674
1.91597
1.94669
2.0003
2.09856
2.28094
2.61073
3.16196
3.95398
3.82973
3.44665
3.09829
2.78313
2.50687
2.27799
2.10233
1.97789
1.897
1.84946
1.8252
1.81592
1.81552
1.82001
1.82703
1.83528
1.84412
1.85294
1.86182
1.87134
1.88219
1.89583
1.91521
1.94618
2.0002
2.09916
2.28247
2.61314
3.16414
3.95357
3.82709
3.44568
3.09871
2.78459
2.50894
2.28011
2.10409
1.97904
1.89749
1.84937
1.82468
1.8151
1.81452
1.81892
1.8259
1.83414
1.84298
1.85183
1.86073
1.87029
1.88119
1.89492
1.91445
1.94567
2.00012
2.09975
2.284
2.61553
3.1663
3.95315
3.82448
3.44471
3.09912
2.78603
2.51098
2.28223
2.10584
1.98019
1.89799
1.8493
1.82417
1.81429
1.81354
1.81785
1.82478
1.833
1.84185
1.85072
1.85966
1.86925
1.88021
1.89402
1.91369
1.94516
2.00004
2.10035
2.28553
2.6179
3.16841
3.95271
3.82188
3.44374
3.0995
2.78744
2.513
2.28432
2.10759
1.98135
1.89851
1.84924
1.82367
1.8135
1.81257
1.81678
1.82367
1.83188
1.84073
1.84963
1.85858
1.86821
1.87923
1.89313
1.91294
1.94467
1.99997
2.10096
2.28706
2.62025
3.17049
3.95224
3.81931
3.44276
3.09986
2.78882
2.51499
2.28639
2.10932
1.98251
1.89903
1.8492
1.82319
1.81272
1.81161
1.81572
1.82257
1.83076
1.83961
1.84853
1.85752
1.86718
1.87825
1.89224
1.9122
1.94418
1.99991
2.10158
2.28858
2.62258
3.17253
3.95177
3.81674
3.44179
3.10021
2.79017
2.51695
2.28844
2.11106
1.98368
1.89957
1.84917
1.82273
1.81195
1.81065
1.81467
1.82147
1.82965
1.83851
1.84745
1.85646
1.86616
1.87728
1.89135
1.91146
1.94369
1.99986
2.10219
2.2901
2.6249
3.17454
3.95127
3.8142
3.44081
3.10053
2.7915
2.51888
2.29048
2.11278