/*--------------------------------*- C++ -*----------------------------------*\
  =========                 |
  \\      /  F ield         | OpenFOAM: The Open Source CFD Toolbox
   \\    /   O peration     | Website:  https://openfoam.org
    \\  /    A nd           | Version:  8
     \\/     M anipulation  |
\*---------------------------------------------------------------------------*/
FoamFile
{
    version     2.0;
    format      ascii;
    class       surfaceScalarField;
    location    "1.2";
    object      phi;
}
// * * * * * * * * * * * * * * * * * * * * * * * * * * * * * * * * * * * * * //

dimensions      [0 3 -1 0 0 0 0];

internalField   nonuniform List<scalar> 
12360
(
-2.04133e-12
-6.68184e-13
-5.99278e-12
9.11909e-12
-1.2011e-11
2.95656e-11
-2.04062e-11
6.1752e-11
-3.14763e-11
1.07604e-10
-4.54985e-11
1.69788e-10
-6.2736e-11
2.51662e-10
-8.33985e-11
3.57102e-10
-1.07607e-10
4.90313e-10
-1.35361e-10
6.55698e-10
-1.66522e-10
8.57781e-10
-2.00796e-10
1.10117e-09
-2.37729e-10
1.39053e-09
-2.76699e-10
1.73058e-09
-3.16911e-10
2.12606e-09
-3.57396e-10
2.58174e-09
-3.97012e-10
3.1024e-09
-4.34436e-10
3.69283e-09
-4.68169e-10
4.35782e-09
-4.96534e-10
5.10216e-09
-5.17679e-10
5.93063e-09
-5.29578e-10
6.84802e-09
-5.30034e-10
7.85909e-09
-5.16692e-10
8.96859e-09
-4.87054e-10
1.01813e-08
-4.38514e-10
1.15019e-08
-3.68377e-10
1.29363e-08
-2.73942e-10
1.44944e-08
-1.54357e-10
1.62127e-08
1.8277e-08
-1.54597e-12
1.16168e-12
-5.81455e-12
1.38559e-11
-1.24355e-11
3.71748e-11
-2.16629e-11
7.24023e-11
-3.36721e-11
1.21527e-10
-4.86638e-11
1.87262e-10
-6.68473e-11
2.7298e-10
-8.83998e-11
3.82521e-10
-1.13424e-10
5.20007e-10
-1.41909e-10
6.89707e-10
-1.73704e-10
8.95987e-10
-2.08504e-10
1.14328e-09
-2.45841e-10
1.43608e-09
-2.85082e-10
1.77891e-09
-3.25427e-10
2.17633e-09
-3.65905e-10
2.6329e-09
-4.05374e-10
3.15322e-09
-4.42518e-10
3.74188e-09
-4.75851e-10
4.40348e-09
-5.03714e-10
5.1426e-09
-5.24277e-10
5.96385e-09
-5.35542e-10
6.87181e-09
-5.35347e-10
7.87105e-09
-5.2137e-10
8.96615e-09
-4.91148e-10
1.01617e-08
-4.42087e-10
1.14624e-08
-3.71379e-10
1.28737e-08
-2.7607e-10
1.44059e-08
-1.5494e-10
1.6095e-08
1.81255e-08
-1.31359e-12
2.50926e-12
-5.39149e-12
1.77395e-11
-1.21039e-11
4.36687e-11
-2.1675e-11
8.1602e-11
-3.41992e-11
1.33517e-10
-4.97945e-11
2.02136e-10
-6.85979e-11
2.90851e-10
-9.07354e-11
4.035e-10
-1.16282e-10
5.44151e-10
-1.45215e-10
7.1698e-10
-1.77382e-10
9.26221e-10
-2.12476e-10
1.17616e-09
-2.50027e-10
1.47114e-09
-2.89402e-10
1.81552e-09
-3.29803e-10
2.2137e-09
-3.70258e-10
2.67009e-09
-4.09628e-10
3.18912e-09
-4.46604e-10
3.77521e-09
-4.79705e-10
4.4328e-09
-5.07279e-10
5.16631e-09
-5.27505e-10
5.98018e-09
-5.38393e-10
6.87884e-09
-5.37791e-10
7.8667e-09
-5.23384e-10
8.94819e-09
-4.92716e-10
1.01277e-08
-4.43186e-10
1.14099e-08
-3.71955e-10
1.28001e-08
-2.76126e-10
1.43084e-08
-1.54552e-10
1.59707e-08
1.79712e-08
-1.2356e-12
3.76331e-12
-5.29441e-12
2.17012e-11
-1.21564e-11
5.05464e-11
-2.20604e-11
9.15279e-11
-3.50787e-11
1.46566e-10
-5.1281e-11
2.1837e-10
-7.07448e-11
3.10343e-10
-9.35402e-11
4.26328e-10
-1.197e-10
5.70359e-10
-1.49176e-10
7.46522e-10
-1.81799e-10
9.58929e-10
-2.17252e-10
1.21172e-09
-2.55059e-10
1.50907e-09
-2.94583e-10
1.85518e-09
-3.3502e-10
2.25429e-09
-3.75401e-10
2.71064e-09
-4.14589e-10
3.22849e-09
-4.51279e-10
3.81209e-09
-4.83997e-10
4.46571e-09
-5.11101e-10
5.19362e-09
-5.30784e-10
6.00008e-09
-5.41072e-10
6.88934e-09
-5.39832e-10
7.86567e-09
-5.24776e-10
8.93333e-09
-4.93479e-10
1.00966e-08
-4.4337e-10
1.13599e-08
-3.71653e-10
1.27286e-08
-2.75544e-10
1.42127e-08
-1.54014e-10
1.58479e-08
1.78181e-08
-1.23425e-12
5.02861e-12
-5.36051e-12
2.575e-11
-1.2406e-11
5.7618e-11
-2.26241e-11
1.01774e-10
-3.60828e-11
1.60061e-10
-5.28274e-11
2.35148e-10
-7.28954e-11
3.30433e-10
-9.63106e-11
4.4976e-10
-1.23064e-10
5.97132e-10
-1.53075e-10
7.76561e-10
-1.86153e-10
9.92043e-10
-2.21967e-10
1.24757e-09
-2.60033e-10
1.54718e-09
-2.99704e-10
1.8949e-09
-3.40175e-10
2.29482e-09
-3.80475e-10
2.751e-09
-4.1947e-10
3.26754e-09
-4.55859e-10
3.84854e-09
-4.88178e-10
4.4981e-09
-5.14797e-10
5.22031e-09
-5.33925e-10
6.01927e-09
-5.4361e-10
6.89909e-09
-5.41742e-10
7.86387e-09
-5.26064e-10
8.91772e-09
-4.94185e-10
1.00648e-08
-4.43574e-10
1.13094e-08
-3.71486e-10
1.26567e-08
-2.75213e-10
1.41167e-08
-1.53723e-10
1.57252e-08
1.76653e-08
-1.27887e-12
6.33215e-12
-5.52811e-12
2.99231e-11
-1.2795e-11
6.49009e-11
-2.33343e-11
1.12325e-10
-3.72099e-11
1.73956e-10
-5.44545e-11
2.52411e-10
-7.50797e-11
3.51063e-10
-9.90739e-11
4.73747e-10
-1.2639e-10
6.24438e-10
-1.56917e-10
8.07081e-10
-1.90438e-10
1.02556e-09
-2.26608e-10
1.28374e-09
-2.64929e-10
1.5855e-09
-3.04749e-10
1.93472e-09
-3.45255e-10
2.33532e-09
-3.85478e-10
2.79122e-09
-4.24283e-10
3.30635e-09
-4.60379e-10
3.88464e-09
-4.92308e-10
4.53003e-09
-5.18456e-10
5.24646e-09
-5.37047e-10
6.03786e-09
-5.46151e-10
6.90819e-09
-5.43685e-10
7.8614e-09
-5.27421e-10
8.90145e-09
-4.95002e-10
1.00323e-08
-4.4393e-10
1.12583e-08
-3.71507e-10
1.25844e-08
-2.7508e-10
1.40205e-08
-1.5357e-10
1.56025e-08
1.75126e-08
-1.34745e-12
7.69585e-12
-5.75479e-12
3.4262e-11
-1.32756e-11
7.2438e-11
-2.41526e-11
1.23211e-10
-3.8441e-11
1.88263e-10
-5.61635e-11
2.70152e-10
-7.73143e-11
3.72221e-10
-1.01855e-10
4.98283e-10
-1.29708e-10
6.52281e-10
-1.60729e-10
8.38095e-10
-1.94682e-10
1.05951e-09
-2.31199e-10
1.32026e-09
-2.69772e-10
1.62407e-09
-3.0974e-10
1.97469e-09
-3.50286e-10
2.37586e-09
-3.90438e-10
2.83137e-09
-4.29065e-10
3.34497e-09
-4.64879e-10
3.92045e-09
-4.96435e-10
4.56158e-09
-5.2213e-10
5.27215e-09
-5.40207e-10
6.05594e-09
-5.48755e-10
6.91674e-09
-5.45717e-10
7.85836e-09
-5.28893e-10
8.88462e-09
-4.95956e-10
9.9994e-09
-4.44441e-10
1.12068e-08
-3.71688e-10
1.25117e-08
-2.75084e-10
1.39241e-08
-1.53501e-10
1.54798e-08
1.73599e-08
-1.42811e-12
9.13052e-12
-6.01388e-12
3.87893e-11
-1.38119e-11
8.02545e-11
-2.50431e-11
1.34449e-10
-3.97475e-11
2.02984e-10
-5.7938e-11
2.88363e-10
-7.95949e-11
3.93888e-10
-1.04659e-10
5.23344e-10
-1.33026e-10
6.8064e-10
-1.64526e-10
8.69589e-10
-1.98897e-10
1.09388e-09
-2.35755e-10
1.35711e-09
-2.74578e-10
1.66289e-09
-3.14695e-10
2.0148e-09
-3.55286e-10
2.41645e-09
-3.95375e-10
2.87146e-09
-4.33835e-10
3.38343e-09
-4.69384e-10
3.956e-09
-5.00584e-10
4.59278e-09
-5.25846e-10
5.29741e-09
-5.43429e-10
6.07352e-09
-5.51443e-10
6.92476e-09
-5.47855e-10
7.85477e-09
-5.3049e-10
8.86726e-09
-4.97048e-10
9.96595e-09
-4.45095e-10
1.11548e-08
-3.72003e-10
1.24387e-08
-2.75193e-10
1.38275e-08
-1.53491e-10
1.53571e-08
1.72072e-08
-1.51546e-12
1.06413e-11
-6.29167e-12
4.35177e-11
-1.4383e-11
8.83669e-11
-2.5982e-11
1.46053e-10
-4.11086e-11
2.18126e-10
-5.97635e-11
3.07037e-10
-8.1915e-11
4.1605e-10
-1.07487e-10
5.48915e-10
-1.36353e-10
7.09498e-10
-1.68317e-10
9.01547e-10
-2.03096e-10
1.12865e-09
-2.40289e-10
1.39431e-09
-2.79359e-10
1.70196e-09
-3.19628e-10
2.05507e-09
-3.60269e-10
2.4571e-09
-4.00304e-10
2.91149e-09
-4.38609e-10
3.42174e-09
-4.73905e-10
3.99129e-09
-5.04765e-10
4.62364e-09
-5.29612e-10
5.32226e-09
-5.4672e-10
6.09063e-09
-5.54219e-10
6.93226e-09
-5.50095e-10
7.85065e-09
-5.32201e-10
8.84936e-09
-4.98262e-10
9.93201e-09
-4.45869e-10
1.11024e-08
-3.72424e-10
1.23654e-08
-2.7538e-10
1.37306e-08
-1.53521e-10
1.52342e-08
1.70544e-08
-1.60712e-12
1.22312e-11
-6.58149e-12
4.84554e-11
-1.49776e-11
9.67868e-11
-2.69551e-11
1.58034e-10
-4.25103e-11
2.33695e-10
-6.16298e-11
3.26175e-10
-8.42696e-11
4.38701e-10
-1.10339e-10
5.74984e-10
-1.39691e-10
7.38842e-10
-1.72109e-10
9.33959e-10
-2.07289e-10
1.16383e-09
-2.44811e-10
1.43183e-09
-2.84128e-10
1.74128e-09
-3.2455e-10
2.0955e-09
-3.65246e-10
2.49779e-09
-4.05235e-10
2.95148e-09
-4.43394e-10
3.4599e-09
-4.78451e-10
4.02635e-09
-5.08985e-10
4.65418e-09
-5.33431e-10
5.3467e-09
-5.50079e-10
6.10728e-09
-5.57075e-10
6.93925e-09
-5.52429e-10
7.84601e-09
-5.34014e-10
8.83095e-09
-4.9958e-10
9.89757e-09
-4.46741e-10
1.10496e-08
-3.72928e-10
1.22916e-08
-2.75626e-10
1.36335e-08
-1.5358e-10
1.51112e-08
1.69015e-08
-1.70213e-12
1.39027e-11
-6.88018e-12
5.36087e-11
-1.55895e-11
1.05523e-10
-2.79543e-11
1.70402e-10
-4.39443e-11
2.49698e-10
-6.35301e-11
3.4578e-10
-8.66552e-11
4.61837e-10
-1.13215e-10
6.01543e-10
-1.43044e-10
7.68665e-10
-1.75909e-10
9.66816e-10
-2.11482e-10
1.1994e-09
-2.49331e-10
1.46968e-09
-2.88893e-10
1.78084e-09
-3.2947e-10
2.13607e-09
-3.70224e-10
2.53854e-09
-4.10174e-10
2.99143e-09
-4.48196e-10
3.49792e-09
-4.83023e-10
4.06118e-09
-5.13243e-10
4.68439e-09
-5.373e-10
5.37076e-09
-5.535e-10
6.12348e-09
-5.60005e-10
6.94576e-09
-5.54845e-10
7.84085e-09
-5.35913e-10
8.81202e-09
-5.00983e-10
9.86263e-09
-4.4769e-10
1.09963e-08
-3.73496e-10
1.22175e-08
-2.75914e-10
1.35361e-08
-1.5366e-10
1.49881e-08
1.67485e-08
-1.80011e-12
1.56579e-11
-7.18625e-12
5.89825e-11
-1.62156e-11
1.14582e-10
-2.89747e-11
1.83163e-10
-4.54051e-11
2.6614e-10
-6.54599e-11
3.65853e-10
-8.90692e-11
4.85458e-10
-1.16115e-10
6.28589e-10
-1.46416e-10
7.9896e-10
-1.7972e-10
1.00011e-09
-2.15683e-10
1.23536e-09
-2.53854e-10
1.50785e-09
-2.9366e-10
1.82065e-09
-3.34393e-10
2.17681e-09
-3.75209e-10
2.57936e-09
-4.15125e-10
3.03135e-09
-4.53018e-10
3.53581e-09
-4.87623e-10
4.09578e-09
-5.17537e-10
4.71431e-09
-5.41216e-10
5.39444e-09
-5.56977e-10
6.13924e-09
-5.62999e-10
6.95178e-09
-5.5733e-10
7.83518e-09
-5.37884e-10
8.79257e-09
-5.02455e-10
9.82719e-09
-4.48702e-10
1.09425e-08
-3.74113e-10
1.2143e-08
-2.76234e-10
1.34384e-08
-1.53754e-10
1.48647e-08
1.65954e-08
-1.90095e-12
1.74987e-11
-7.49903e-12
6.45811e-11
-1.68541e-11
1.2397e-10
-3.00135e-11
1.96325e-10
-4.68893e-11
2.83028e-10
-6.74161e-11
3.86398e-10
-9.15098e-11
5.09564e-10
-1.19039e-10
6.56119e-10
-1.49808e-10
8.29723e-10
-1.83546e-10
1.03384e-09
-2.19894e-10
1.2717e-09
-2.58386e-10
1.54634e-09
-2.98434e-10
1.86069e-09
-3.39324e-10
2.2177e-09
-3.80204e-10
2.62024e-09
-4.2009e-10
3.07124e-09
-4.57859e-10
3.57358e-09
-4.9225e-10
4.13017e-09
-5.21867e-10
4.74393e-09
-5.45174e-10
5.41775e-09
-5.60503e-10
6.15457e-09
-5.66048e-10
6.95733e-09
-5.59874e-10
7.829e-09
-5.39914e-10
8.77261e-09
-5.03983e-10
9.79125e-09
-4.49763e-10
1.08883e-08
-3.74768e-10
1.20681e-08
-2.76578e-10
1.33404e-08
-1.53859e-10
1.47412e-08
1.64421e-08
-2.00464e-12
1.94274e-11
-7.81819e-12
7.04087e-11
-1.7504e-11
1.33692e-10
-3.10689e-11
2.09891e-10
-4.83947e-11
3.00366e-10
-6.93965e-11
4.07418e-10
-9.39755e-11
5.34154e-10
-1.21987e-10
6.84131e-10
-1.5322e-10
8.60951e-10
-1.87389e-10
1.06801e-09
-2.24119e-10
1.30843e-09
-2.62928e-10
1.58514e-09
-3.03218e-10
1.90098e-09
-3.44265e-10
2.25874e-09
-3.85212e-10
2.66119e-09
-4.25071e-10
3.11109e-09
-4.6272e-10
3.61123e-09
-4.96903e-10
4.16436e-09
-5.26227e-10
4.77325e-09
-5.4917e-10
5.44069e-09
-5.64072e-10
6.16947e-09
-5.69144e-10
6.9624e-09
-5.62466e-10
7.82233e-09
-5.41992e-10
8.75214e-09
-5.05556e-10
9.75481e-09
-4.50861e-10
1.08336e-08
-3.75451e-10
1.19928e-08
-2.7694e-10
1.3242e-08
-1.53972e-10
1.46174e-08
1.62887e-08
-2.11119e-12
2.14458e-11
-8.14353e-12
7.64691e-11
-1.81646e-11
1.43752e-10
-3.21397e-11
2.23868e-10
-4.99198e-11
3.18158e-10
-7.13996e-11
4.28915e-10
-9.64652e-11
5.59232e-10
-1.24958e-10
7.12625e-10
-1.56654e-10
8.92641e-10
-1.91251e-10
1.1026e-09
-2.2836e-10
1.34553e-09
-2.67484e-10
1.62426e-09
-3.08015e-10
1.94151e-09
-3.49219e-10
2.29995e-09
-3.90234e-10
2.7022e-09
-4.30068e-10
3.15093e-09
-4.67601e-10
3.64876e-09
-5.01579e-10
4.19833e-09
-5.30616e-10
4.80229e-09
-5.53198e-10
5.46327e-09
-5.67677e-10
6.18395e-09
-5.72279e-10
6.967e-09
-5.65099e-10
7.81515e-09
-5.44109e-10
8.73115e-09
-5.07164e-10
9.71786e-09
-4.51989e-10
1.07784e-08
-3.76157e-10
1.1917e-08
-2.77317e-10
1.31433e-08
-1.54091e-10
1.44935e-08
1.61351e-08
-2.2206e-12
2.35562e-11
-8.47491e-12
8.27662e-11
-1.88355e-11
1.54155e-10
-3.32252e-11
2.38258e-10
-5.14632e-11
3.36407e-10
-7.3424e-11
4.50894e-10
-9.8978e-11
5.84797e-10
-1.27952e-10
7.41601e-10
-1.60109e-10
9.24792e-10
-1.95133e-10
1.13761e-09
-2.32618e-10
1.38301e-09
-2.72056e-10
1.6637e-09
-3.12826e-10
1.98228e-09
-3.54187e-10
2.34131e-09
-3.9527e-10
2.74329e-09
-4.35082e-10
3.19074e-09
-4.72501e-10
3.68618e-09
-5.06277e-10
4.23211e-09
-5.35031e-10
4.83104e-09
-5.57255e-10
5.4855e-09
-5.71314e-10
6.19801e-09
-5.75446e-10
6.97113e-09
-5.67764e-10
7.80746e-09
-5.46258e-10
8.70964e-09
-5.088e-10
9.68039e-09
-4.53139e-10
1.07227e-08
-3.7688e-10
1.18408e-08
-2.77704e-10
1.30443e-08
-1.54215e-10
1.43693e-08
1.59814e-08
-2.33287e-12
2.57604e-11
-8.81218e-12
8.93037e-11
-1.95163e-11
1.64904e-10
-3.43245e-11
2.53067e-10
-5.3024e-11
3.55118e-10
-7.54686e-11
4.73357e-10
-1.01513e-10
6.10853e-10
-1.30969e-10
7.71058e-10
-1.63587e-10
9.57404e-10
-1.99035e-10
1.17306e-09
-2.36894e-10
1.42087e-09
-2.76645e-10
1.70345e-09
-3.17653e-10
2.02329e-09
-3.5917e-10
2.38282e-09
-4.00322e-10
2.78444e-09
-4.40113e-10
3.23053e-09
-4.7742e-10
3.72349e-09
-5.10996e-10
4.26569e-09
-5.39468e-10
4.85951e-09
-5.61336e-10
5.50737e-09
-5.74977e-10
6.21165e-09
-5.78641e-10
6.9748e-09
-5.70457e-10
7.79928e-09
-5.48431e-10
8.68761e-09
-5.10457e-10
9.64241e-09
-4.54307e-10
1.06666e-08
-3.77616e-10
1.17642e-08
-2.781e-10
1.29449e-08
-1.54344e-10
1.42449e-08
1.58275e-08
-2.44796e-12
2.80605e-11
-9.15516e-12
9.6085e-11
-2.02066e-11
1.76005e-10
-3.5437e-11
2.68298e-10
-5.46013e-11
3.74295e-10
-7.75326e-11
4.96306e-10
-1.04069e-10
6.37401e-10
-1.34008e-10
8.00999e-10
-1.67085e-10
9.90476e-10
-2.02957e-10
1.20892e-09
-2.4119e-10
1.45909e-09
-2.81251e-10
1.74351e-09
-3.22496e-10
2.06454e-09
-3.64169e-10
2.42449e-09
-4.0539e-10
2.82566e-09
-4.4516e-10
3.2703e-09
-4.82356e-10
3.76068e-09
-5.15734e-10
4.29906e-09
-5.43925e-10
4.88771e-09
-5.65439e-10
5.52888e-09
-5.78662e-10
6.22487e-09
-5.81858e-10
6.978e-09
-5.7317e-10
7.79059e-09
-5.50624e-10
8.66507e-09
-5.12131e-10
9.60392e-09
-4.55488e-10
1.06099e-08
-3.78361e-10
1.16872e-08
-2.78502e-10
1.28452e-08
-1.54474e-10
1.41202e-08
1.56734e-08
-2.56585e-12
3.04584e-11
-9.50369e-12
1.03114e-10
-2.0906e-11
1.8746e-10
-3.65621e-11
2.83954e-10
-5.61945e-11
3.93939e-10
-7.96149e-11
5.19745e-10
-1.06645e-10
6.64442e-10
-1.37068e-10
8.31423e-10
-1.70606e-10
1.02401e-09
-2.069e-10
1.24521e-09
-2.45505e-10
1.49769e-09
-2.85875e-10
1.78388e-09
-3.27357e-10
2.10602e-09
-3.69184e-10
2.46632e-09
-4.10474e-10
2.86695e-09
-4.50223e-10
3.31005e-09
-4.87308e-10
3.79777e-09
-5.20489e-10
4.33225e-09
-5.48401e-10
4.91562e-09
-5.69561e-10
5.55004e-09
-5.82366e-10
6.23768e-09
-5.85093e-10
6.98072e-09
-5.75901e-10
7.7814e-09
-5.52831e-10
8.642e-09
-5.13817e-10
9.5649e-09
-4.56679e-10
1.05528e-08
-3.79114e-10
1.16097e-08
-2.78909e-10
1.27452e-08
-1.54608e-10
1.39954e-08
1.55192e-08
-2.68649e-12
3.2956e-11
-9.85755e-12
1.10393e-10
-2.16142e-11
1.99272e-10
-3.76994e-11
3.00039e-10
-5.78027e-11
4.14055e-10
-8.17149e-11
5.43676e-10
-1.09241e-10
6.91979e-10
-1.40149e-10
8.62332e-10
-1.74147e-10
1.058e-09
-2.10864e-10
1.28192e-09
-2.4984e-10
1.53667e-09
-2.90518e-10
1.82455e-09
-3.32235e-10
2.14774e-09
-3.74217e-10
2.5083e-09
-4.15574e-10
2.90831e-09
-4.55302e-10
3.34978e-09
-4.92277e-10
3.83475e-09
-5.2526e-10
4.36523e-09
-5.52892e-10
4.94325e-09
-5.73699e-10
5.57085e-09
-5.86086e-10
6.25007e-09
-5.88343e-10
6.98298e-09
-5.78645e-10
7.7717e-09
-5.5505e-10
8.6184e-09
-5.15512e-10
9.52535e-09
-4.57876e-10
1.04952e-08
-3.79872e-10
1.15317e-08
-2.79321e-10
1.26447e-08
-1.54743e-10
1.38703e-08
1.53647e-08
-2.80984e-12
3.5555e-11
-1.02165e-11
1.17926e-10
-2.23308e-11
2.11446e-10
-3.88483e-11
3.16557e-10
-5.94255e-11
4.34645e-10
-8.38319e-11
5.68102e-10
-1.11855e-10
7.20014e-10
-1.4325e-10
8.93728e-10
-1.77709e-10
1.09245e-09
-2.14848e-10
1.31905e-09
-2.54194e-10
1.57601e-09
-2.9518e-10
1.86553e-09
-3.37131e-10
2.18969e-09
-3.79266e-10
2.55044e-09
-4.20691e-10
2.94973e-09
-4.60397e-10
3.38949e-09
-4.97262e-10
3.87161e-09
-5.30047e-10
4.39801e-09
-5.57399e-10
4.9706e-09
-5.77851e-10
5.5913e-09
-5.89819e-10
6.26203e-09
-5.91606e-10
6.98477e-09
-5.81399e-10
7.7615e-09
-5.57278e-10
8.59428e-09
-5.17214e-10
9.48528e-09
-4.59078e-10
1.0437e-08
-3.80634e-10
1.14533e-08
-2.79735e-10
1.2544e-08
-1.5488e-10
1.37449e-08
1.52102e-08
-2.93585e-12
3.82572e-11
-1.05805e-11
1.25716e-10
-2.30555e-11
2.23985e-10
-4.00083e-11
3.33509e-10
-6.10622e-11
4.55713e-10
-8.59654e-11
5.93025e-10
-1.14489e-10
7.48549e-10
-1.46371e-10
9.25611e-10
-1.81292e-10
1.12737e-09
-2.18853e-10
1.35661e-09
-2.58569e-10
1.61572e-09
-2.99861e-10
1.90682e-09
-3.42046e-10
2.23187e-09
-3.84334e-10
2.59273e-09
-4.25825e-10
2.99122e-09
-4.65509e-10
3.42917e-09
-5.02262e-10
3.90836e-09
-5.34848e-10
4.4306e-09
-5.6192e-10
4.99768e-09
-5.82016e-10
5.6114e-09
-5.93564e-10
6.27358e-09
-5.94878e-10
6.98608e-09
-5.84162e-10
7.75078e-09
-5.59511e-10
8.56963e-09
-5.1892e-10
9.44469e-09
-4.60283e-10
1.03784e-08
-3.81399e-10
1.13745e-08
-2.80153e-10
1.24429e-08
-1.55018e-10
1.36193e-08
1.50554e-08
-3.06446e-12
4.10642e-11
-1.09492e-11
1.33765e-10
-2.37879e-11
2.36892e-10
-4.11791e-11
3.509e-10
-6.27125e-11
4.7726e-10
-8.81149e-11
6.18447e-10
-1.1714e-10
7.77586e-10
-1.49512e-10
9.57983e-10
-1.84895e-10
1.16275e-09
-2.22879e-10
1.39458e-09
-2.62965e-10
1.6558e-09
-3.04563e-10
1.94842e-09
-3.46981e-10
2.27429e-09
-3.8942e-10
2.63517e-09
-4.30978e-10
3.03278e-09
-4.70638e-10
3.46883e-09
-5.07278e-10
3.945e-09
-5.39665e-10
4.46299e-09
-5.66455e-10
5.02447e-09
-5.86194e-10
5.63114e-09
-5.9732e-10
6.28471e-09
-5.9816e-10
6.98692e-09
-5.86932e-10
7.73956e-09
-5.6175e-10
8.54445e-09
-5.20629e-10
9.40356e-09
-4.61491e-10
1.03192e-08
-3.82167e-10
1.12952e-08
-2.80572e-10
1.23414e-08
-1.55158e-10
1.34935e-08
1.49005e-08
-3.19565e-12
4.39776e-11
-1.13224e-11
1.42077e-10
-2.45278e-11
2.50169e-10
-4.23604e-11
3.68732e-10
-6.4376e-11
4.9929e-10
-9.02803e-11
6.44372e-10
-1.1981e-10
8.07127e-10
-1.52673e-10
9.90846e-10
-1.8852e-10
1.19859e-09
-2.26926e-10
1.43298e-09
-2.67383e-10
1.69625e-09
-3.09286e-10
1.99032e-09
-3.51936e-10
2.31693e-09
-3.94527e-10
2.67776e-09
-4.36149e-10
3.0744e-09
-4.75785e-10
3.50847e-09
-5.12311e-10
3.98153e-09
-5.44497e-10
4.49517e-09
-5.71004e-10
5.05097e-09
-5.90384e-10
5.65052e-09
-6.01086e-10
6.29541e-09
-6.01449e-10
6.98729e-09
-5.89707e-10
7.72781e-09
-5.63992e-10
8.51873e-09
-5.2234e-10
9.36191e-09
-4.62699e-10
1.02596e-08
-3.82936e-10
1.12155e-08
-2.80993e-10
1.22396e-08
-1.55298e-10
1.33675e-08
1.47454e-08
-3.32938e-12
4.69988e-11
-1.17001e-11
1.50654e-10
-2.52749e-11
2.6382e-10
-4.35518e-11
3.87008e-10
-6.60525e-11
5.21805e-10
-9.24613e-11
6.70802e-10
-1.22497e-10
8.37175e-10
-1.55853e-10
1.0242e-09
-1.92165e-10
1.23489e-09
-2.30996e-10
1.4718e-09
-2.71823e-10
1.73707e-09
-3.14032e-10
2.03253e-09
-3.56914e-10
2.35982e-09
-3.99655e-10
2.7205e-09
-4.41341e-10
3.11609e-09
-4.80951e-10
3.54808e-09
-5.17363e-10
4.01794e-09
-5.49346e-10
4.52716e-09
-5.75567e-10
5.07719e-09
-5.94587e-10
5.66954e-09
-6.04863e-10
6.30569e-09
-6.04747e-10
6.98717e-09
-5.92489e-10
7.71556e-09
-5.66238e-10
8.49248e-09
-5.24053e-10
9.31972e-09
-4.63909e-10
1.01994e-08
-3.83706e-10
1.11354e-08
-2.81417e-10
1.21374e-08
-1.5544e-10
1.32412e-08
1.45901e-08
-3.46562e-12
5.01293e-11
-1.20821e-11
1.59499e-10
-2.60292e-11
2.77848e-10
-4.47534e-11
4.05731e-10
-6.77421e-11
5.44809e-10
-9.46581e-11
6.9774e-10
-1.25203e-10
8.67732e-10
-1.59055e-10
1.05805e-09
-1.95834e-10
1.27166e-09
-2.35089e-10
1.51105e-09
-2.76287e-10
1.77827e-09
-3.18803e-10
2.07504e-09
-3.61916e-10
2.40293e-09
-4.04807e-10
2.76339e-09
-4.46556e-10
3.15784e-09
-4.8614e-10
3.58766e-09
-5.22435e-10
4.05424e-09
-5.54214e-10
4.55894e-09
-5.80147e-10
5.10313e-09
-5.98804e-10
5.68819e-09
-6.08651e-10
6.31553e-09
-6.08053e-10
6.98657e-09
-5.95276e-10
7.70278e-09
-5.68487e-10
8.46569e-09
-5.25768e-10
9.27699e-09
-4.65121e-10
1.01388e-08
-3.84479e-10
1.10548e-08
-2.81843e-10
1.20349e-08
-1.55583e-10
1.31146e-08
1.44346e-08
-3.60437e-12
5.33705e-11
-1.24682e-11
1.68614e-10
-2.67904e-11
2.92255e-10
-4.59651e-11
4.24904e-10
-6.94448e-11
5.68305e-10
-9.68712e-11
7.25189e-10
-1.27928e-10
8.98801e-10
-1.62278e-10
1.0924e-09
-1.99526e-10
1.30891e-09
-2.39208e-10
1.55073e-09
-2.80778e-10
1.81983e-09
-3.236e-10
2.11786e-09
-3.66945e-10
2.44627e-09
-4.09986e-10
2.80643e-09
-4.51797e-10
3.19965e-09
-4.91353e-10
3.62722e-09
-5.2753e-10
4.09041e-09
-5.59103e-10
4.59051e-09
-5.84746e-10
5.12877e-09
-6.03037e-10
5.70649e-09
-6.12452e-10
6.32495e-09
-6.1137e-10
6.98549e-09
-5.9807e-10
7.68948e-09
-5.70741e-10
8.43836e-09
-5.27485e-10
9.23373e-09
-4.66334e-10
1.00776e-08
-3.85253e-10
1.09738e-08
-2.8227e-10
1.19321e-08
-1.55726e-10
1.29878e-08
1.42789e-08
-3.74564e-12
5.67238e-11
-1.28586e-11
1.78002e-10
-2.75587e-11
3.07045e-10
-4.7187e-11
4.44531e-10
-7.11611e-11
5.92296e-10
-9.9101e-11
7.53151e-10
-1.30673e-10
9.30385e-10
-1.65523e-10
1.12725e-09
-2.03243e-10
1.34662e-09
-2.43354e-10
1.59083e-09
-2.85298e-10
1.86177e-09
-3.28427e-10
2.16099e-09
-3.72004e-10
2.48985e-09
-4.15194e-10
2.84962e-09
-4.57067e-10
3.24152e-09
-4.96595e-10
3.66674e-09
-5.32652e-10
4.12647e-09
-5.64016e-10
4.62187e-09
-5.89367e-10
5.15412e-09
-6.07289e-10
5.72441e-09
-6.16269e-10
6.33393e-09
-6.14698e-10
6.98392e-09
-6.00873e-10
7.67566e-09
-5.73e-10
8.41049e-09
-5.29206e-10
9.18994e-09
-4.67549e-10
1.0016e-08
-3.8603e-10
1.08923e-08
-2.827e-10
1.18289e-08
-1.55872e-10
1.28608e-08
1.41231e-08
-3.88946e-12
6.01904e-11
-1.32531e-11
1.87665e-10
-2.83342e-11
3.22222e-10
-4.84194e-11
4.64615e-10
-7.28915e-11
6.16786e-10
-1.01349e-10
7.81632e-10
-1.3344e-10
9.62488e-10
-1.68794e-10
1.16261e-09
-2.06988e-10
1.38481e-09
-2.4753e-10
1.63137e-09
-2.89849e-10
1.90408e-09
-3.33288e-10
2.20442e-09
-3.77098e-10
2.53366e-09
-4.20438e-10
2.89296e-09
-4.62373e-10
3.28345e-09
-5.0187e-10
3.70624e-09
-5.37806e-10
4.16241e-09
-5.68959e-10
4.65303e-09
-5.94015e-10
5.17918e-09
-6.11564e-10
5.74196e-09
-6.20105e-10
6.34247e-09
-6.18041e-10
6.98186e-09
-6.03686e-10
7.6613e-09
-5.75267e-10
8.38207e-09
-5.30931e-10
9.1456e-09
-4.68767e-10
9.95381e-09
-3.8681e-10
1.08104e-08
-2.83133e-10
1.17254e-08
-1.56018e-10
1.27336e-08
1.3967e-08
-4.03587e-12
6.37718e-11
-1.36518e-11
1.97607e-10
-2.9117e-11
3.37787e-10
-4.9663e-11
4.8516e-10
-7.46369e-11
6.41778e-10
-1.03615e-10
8.10635e-10
-1.36229e-10
9.95115e-10
-1.72091e-10
1.19847e-09
-2.10764e-10
1.42347e-09
-2.51741e-10
1.67233e-09
-2.94438e-10
1.94677e-09
-3.38188e-10
2.24817e-09
-3.82232e-10
2.5777e-09
-4.25723e-10
2.93645e-09
-4.67718e-10
3.32545e-09
-5.07185e-10
3.74571e-09
-5.42998e-10
4.19822e-09
-5.73937e-10
4.68396e-09
-5.98694e-10
5.20394e-09
-6.15867e-10
5.75913e-09
-6.23964e-10
6.35057e-09
-6.21403e-10
6.9793e-09
-6.06515e-10
7.64641e-09
-5.77543e-10
8.3531e-09
-5.32663e-10
9.10071e-09
-4.69991e-10
9.89113e-09
-3.87594e-10
1.0728e-08
-2.8357e-10
1.16215e-08
-1.56166e-10
1.26061e-08
1.38108e-08
-4.18494e-12
6.74691e-11
-1.4055e-11
2.07829e-10
-2.99075e-11
3.53745e-10
-5.09183e-11
5.06169e-10
-7.63985e-11
6.67277e-10
-1.05903e-10
8.40165e-10
-1.39044e-10
1.02827e-09
-1.75419e-10
1.23484e-09
-2.14574e-10
1.46262e-09
-2.5599e-10
1.71374e-09
-2.99069e-10
1.98985e-09
-3.43132e-10
2.29223e-09
-3.87413e-10
2.62198e-09
-4.31055e-10
2.98009e-09
-4.73112e-10
3.36751e-09
-5.12547e-10
3.78514e-09
-5.48234e-10
4.23391e-09
-5.78958e-10
4.71469e-09
-6.03412e-10
5.22839e-09
-6.20204e-10
5.77592e-09
-6.27852e-10
6.35822e-09
-6.24789e-10
6.97623e-09
-6.09361e-10
7.63099e-09
-5.79833e-10
8.32357e-09
-5.34405e-10
9.05528e-09
-4.71221e-10
9.82794e-09
-3.88384e-10
1.06452e-08
-2.84011e-10
1.15172e-08
-1.56316e-10
1.24783e-08
1.36544e-08
-4.33679e-12
7.12839e-11
-1.44627e-11
2.18336e-10
-3.07063e-11
3.701e-10
-5.21865e-11
5.27648e-10
-7.81779e-11
6.93288e-10
-1.08213e-10
8.70226e-10
-1.41888e-10
1.06196e-09
-1.78782e-10
1.27173e-09
-2.18424e-10
1.50225e-09
-2.60283e-10
1.75559e-09
-3.03748e-10
2.03331e-09
-3.48129e-10
2.33661e-09
-3.92648e-10
2.6665e-09
-4.36444e-10
3.02388e-09
-4.78562e-10
3.40963e-09
-5.17965e-10
3.82455e-09
-5.53525e-10
4.26947e-09
-5.84029e-10
4.74519e-09
-6.08176e-10
5.25254e-09
-6.24582e-10
5.79233e-09
-6.31776e-10
6.36541e-09
-6.28204e-10
6.97266e-09
-6.1223e-10
7.61501e-09
-5.82141e-10
8.29348e-09
-5.36159e-10
9.00929e-09
-4.72461e-10
9.76423e-09
-3.89181e-10
1.05619e-08
-2.84456e-10
1.14127e-08
-1.56468e-10
1.23503e-08
1.34978e-08
-4.49154e-12
7.52176e-11
-1.48754e-11
2.29129e-10
-3.15142e-11
3.86856e-10
-5.34688e-11
5.49601e-10
-7.99773e-11
7.19818e-10
-1.1055e-10
9.00826e-10
-1.44765e-10
1.09618e-09
-1.82183e-10
1.30915e-09
-2.2232e-10
1.54238e-09
-2.64628e-10
1.79789e-09
-3.08484e-10
2.07716e-09
-3.53187e-10
2.38131e-09
-3.97949e-10
2.71126e-09
-4.41899e-10
3.06783e-09
-4.84081e-10
3.45181e-09
-5.23451e-10
3.86392e-09
-5.58882e-10
4.3049e-09
-5.89162e-10
4.77547e-09
-6.12998e-10
5.27637e-09
-6.29012e-10
5.80834e-09
-6.35744e-10
6.37214e-09
-6.31656e-10
6.96857e-09
-6.15129e-10
7.59849e-09
-5.8447e-10
8.26282e-09
-5.37929e-10
8.96275e-09
-4.73712e-10
9.7e-09
-3.89986e-10
1.04783e-08
-2.84908e-10
1.13077e-08
-1.56622e-10
1.22221e-08
1.33409e-08
-4.64938e-12
7.92716e-11
-1.52934e-11
2.40213e-10
-3.2332e-11
4.04018e-10
-5.4767e-11
5.72035e-10
-8.17993e-11
7.46872e-10
-1.12917e-10
9.31972e-10
-1.47679e-10
1.13096e-09
-1.8563e-10
1.3471e-09
-2.26269e-10
1.58301e-09
-2.69034e-10
1.84065e-09
-3.13288e-10
2.12141e-09
-3.58317e-10
2.42633e-09
-4.03326e-10
2.75627e-09
-4.47435e-10
3.11194e-09
-4.8968e-10
3.49405e-09
-5.29017e-10
3.90325e-09
-5.64317e-10
4.3402e-09
-5.9437e-10
4.80553e-09
-6.17889e-10
5.29989e-09
-6.33503e-10
5.82396e-09
-6.39766e-10
6.37841e-09
-6.35153e-10
6.96396e-09
-6.18064e-10
7.5814e-09
-5.86828e-10
8.23159e-09
-5.39721e-10
8.91564e-09
-4.74978e-10
9.63525e-09
-3.90803e-10
1.03941e-08
-2.85367e-10
1.12025e-08
-1.56779e-10
1.20935e-08
1.31839e-08
-4.81053e-12
8.34478e-11
-1.57173e-11
2.51591e-10
-3.31611e-11
4.21591e-10
-5.60833e-11
5.94956e-10
-8.36472e-11
7.74458e-10
-1.15319e-10
9.63672e-10
-1.50637e-10
1.16629e-09
-1.8913e-10
1.38559e-09
-2.30281e-10
1.62415e-09
-2.73511e-10
1.88387e-09
-3.18171e-10
2.16606e-09
-3.63534e-10
2.47169e-09
-4.08795e-10
2.80152e-09
-4.53066e-10
3.15621e-09
-4.95378e-10
3.53636e-09
-5.34681e-10
3.94256e-09
-5.69847e-10
4.37536e-09
-5.99669e-10
4.83535e-09
-6.22864e-10
5.32309e-09
-6.38071e-10
5.83916e-09
-6.43855e-10
6.38419e-09
-6.38706e-10
6.95881e-09
-6.21044e-10
7.56374e-09
-5.89221e-10
8.19977e-09
-5.41538e-10
8.86795e-09
-4.76264e-10
9.56996e-09
-3.91633e-10
1.03095e-08
-2.85834e-10
1.10968e-08
-1.5694e-10
1.19648e-08
1.30267e-08
-4.97528e-12
8.77478e-11
-1.6148e-11
2.63268e-10
-3.4003e-11
4.39582e-10
-5.74205e-11
6.18372e-10
-8.55253e-11
8.02586e-10
-1.1776e-10
9.95937e-10
-1.53647e-10
1.20219e-09
-1.92693e-10
1.42463e-09
-2.34367e-10
1.66582e-09
-2.78073e-10
1.92757e-09
-3.23148e-10
2.21113e-09
-3.68855e-10
2.5174e-09
-4.14375e-10
2.84704e-09
-4.58813e-10
3.20065e-09
-5.01192e-10
3.57874e-09
-5.40461e-10
3.98183e-09
-5.75491e-10
4.41039e-09
-6.05076e-10
4.86493e-09
-6.2794e-10
5.34595e-09
-6.42729e-10
5.85395e-09
-6.48023e-10
6.38948e-09
-6.42327e-10
6.95312e-09
-6.2408e-10
7.54549e-09
-5.91658e-10
8.16734e-09
-5.43389e-10
8.81967e-09
-4.77573e-10
9.50414e-09
-3.92479e-10
1.02244e-08
-2.86311e-10
1.09908e-08
-1.57104e-10
1.18357e-08
1.28693e-08
-5.144e-12
9.2174e-11
-1.65862e-11
2.75249e-10
-3.48599e-11
4.57999e-10
-5.87821e-11
6.42293e-10
-8.74388e-11
8.31268e-10
-1.2025e-10
1.02878e-09
-1.56717e-10
1.23867e-09
-1.96331e-10
1.46424e-09
-2.38541e-10
1.70802e-09
-2.82736e-10
1.97175e-09
-3.2824e-10
2.25663e-09
-3.743e-10
2.56345e-09
-4.20087e-10
2.89283e-09
-4.64697e-10
3.24526e-09
-5.07148e-10
3.62119e-09
-5.46383e-10
4.02106e-09
-5.81273e-10
4.44528e-09
-6.10615e-10
4.89428e-09
-6.33138e-10
5.36847e-09
-6.47499e-10
5.86832e-09
-6.52289e-10
6.39428e-09
-6.46031e-10
6.94686e-09
-6.27184e-10
7.52664e-09
-5.94148e-10
8.13431e-09
-5.45279e-10
8.7708e-09
-4.78912e-10
9.43775e-09
-3.93346e-10
1.01389e-08
-2.868e-10
1.08844e-08
-1.57273e-10
1.17064e-08
1.27116e-08
-5.3171e-12
9.67286e-11
-1.70333e-11
2.8754e-10
-3.57342e-11
4.7685e-10
-6.01726e-11
6.66729e-10
-8.93945e-11
8.60515e-10
-1.22797e-10
1.06221e-09
-1.59861e-10
1.27575e-09
-2.00059e-10
1.50444e-09
-2.42821e-10
1.75077e-09
-2.87522e-10
2.01644e-09
-3.33468e-10
2.30257e-09
-3.79894e-10
2.60987e-09
-4.25959e-10
2.93889e-09
-4.70748e-10
3.29005e-09
-5.13274e-10
3.66372e-09
-5.52474e-10
4.06026e-09
-5.8722e-10
4.48003e-09
-6.16312e-10
4.92337e-09
-6.38483e-10
5.39064e-09
-6.52402e-10
5.88224e-09
-6.56672e-10
6.39855e-09
-6.49835e-10
6.94002e-09
-6.3037e-10
7.50718e-09
-5.96702e-10
8.10064e-09
-5.47218e-10
8.72131e-09
-4.80285e-10
9.37081e-09
-3.94235e-10
1.00528e-08
-2.87302e-10
1.07777e-08
-1.57447e-10
1.15768e-08
1.25537e-08
-5.49516e-12
1.01414e-10
-1.74909e-11
3.00149e-10
-3.66294e-11
4.96146e-10
-6.15975e-11
6.91696e-10
-9.14007e-11
8.90345e-10
-1.25412e-10
1.09626e-09
-1.63092e-10
1.31344e-09
-2.03894e-10
1.54524e-09
-2.4723e-10
1.79409e-09
-2.92455e-10
2.06166e-09
-3.38861e-10
2.34897e-09
-3.85668e-10
2.65668e-09
-4.32023e-10
2.98525e-09
-4.77e-10
3.33503e-09
-5.19604e-10
3.70632e-09
-5.5877e-10
4.09943e-09
-5.93367e-10
4.51463e-09
-6.22199e-10
4.9522e-09
-6.44005e-10
5.41245e-09
-6.57465e-10
5.8957e-09
-6.61196e-10
6.40228e-09
-6.53759e-10
6.93259e-09
-6.33654e-10
7.48707e-09
-5.99334e-10
8.06632e-09
-5.49216e-10
8.67119e-09
-4.817e-10
9.30327e-09
-3.95153e-10
9.96631e-09
-2.8782e-10
1.06706e-08
-1.57627e-10
1.14469e-08
1.23956e-08
-5.67888e-12
1.06235e-10
-1.79608e-11
3.13083e-10
-3.75496e-11
5.159e-10
-6.30641e-11
7.17209e-10
-9.3468e-11
9.20777e-10
-1.2811e-10
1.13093e-09
-1.6643e-10
1.35178e-09
-2.07861e-10
1.58666e-09
-2.51794e-10
1.83802e-09
-2.97568e-10
2.10742e-09
-3.44456e-10
2.39585e-09
-3.91662e-10
2.70388e-09
-4.3832e-10
3.0319e-09
-4.83495e-10
3.3802e-09
-5.26182e-10
3.74901e-09
-5.65312e-10
4.13856e-09
-5.99754e-10
4.54907e-09
-6.28314e-10
4.98076e-09
-6.49739e-10
5.43388e-09
-6.62719e-10
5.90868e-09
-6.65889e-10
6.40545e-09
-6.57826e-10
6.92452e-09
-6.37056e-10
7.4663e-09
-6.0206e-10
8.03132e-09
-5.51284e-10
8.6204e-09
-4.83165e-10
9.23514e-09
-3.96104e-10
9.87927e-09
-2.88358e-10
1.0563e-08
-1.57813e-10
1.13167e-08
1.22373e-08
-5.86913e-12
1.11194e-10
-1.84457e-11
3.26354e-10
-3.85002e-11
5.36128e-10
-6.45812e-11
7.43288e-10