/*--------------------------------*- C++ -*----------------------------------*\
  =========                 |
  \\      /  F ield         | OpenFOAM: The Open Source CFD Toolbox
   \\    /   O peration     | Website:  https://openfoam.org
    \\  /    A nd           | Version:  8
     \\/     M anipulation  |
\*---------------------------------------------------------------------------*/
FoamFile
{
    version     2.0;
    format      ascii;
    class       volScalarField;
    location    "1.2";
    object      Q3;
}
// * * * * * * * * * * * * * * * * * * * * * * * * * * * * * * * * * * * * * //

dimensions      [0 0 -1 0 0 0 0];

internalField   nonuniform List<scalar> 
6300
(
0.0325394
0.144015
0.26756
0.407249
0.573419
0.774059
1.01652
1.30647
1.64778
2.04301
2.49398
3.00211
3.56861
4.19453
4.88081
5.6283
6.43778
7.31001
8.24571
9.24559
10.3103
11.4406
12.6371
13.9003
15.2317
16.6368
18.1482
19.9523
23.1053
35.2768
0.0789449
0.212382
0.34854
0.501375
0.680962
0.896834
1.15653
1.46493
1.82487
2.23804
2.70565
3.22866
3.8079
4.44411
5.1379
5.88987
6.70053
7.57036
8.49983
9.48938
10.5394
11.6503
12.8223
14.0557
15.3514
16.7152
18.1809
19.9398
23.0687
35.1748
0.0951798
0.229545
0.378987
0.550506
0.747533
0.977873
1.25
1.57011
1.94218
2.36845
2.85012
3.38782
3.982
4.63296
5.34091
6.106
6.92835
7.80803
8.74513
9.73971
10.7919
11.9018
13.0696
14.2957
15.5813
16.9329
18.3855
20.1287
23.2284
35.3228
0.120887
0.254381
0.410517
0.593316
0.804168
1.04842
1.33307
1.66456
2.04749
2.48448
2.97675
3.52483
4.12894
4.78916
5.50547
6.27779
7.10591
7.98936
8.92607
9.91495
10.9587
12.0579
13.2128
14.4232
15.69
17.0192
18.4479
20.1724
23.2823
35.3651
0.149907
0.28442
0.444175
0.632997
0.851975
1.10528
1.39882
1.73851
2.12881
2.57235
3.07041
3.6235
4.23182
4.89543
5.61426
6.38819
7.21704
8.1005
9.03336
10.0164
11.0539
12.1461
13.2929
14.4945
15.7515
17.0706
18.4897
20.2093
23.3375
35.4192
0.181254
0.318392
0.481869
0.675752
0.901555
1.16299
1.46511
1.81314
2.21117
2.66168
3.16587
3.72426
4.33701
5.00413
5.72553
6.50104
7.33045
8.21351
9.13838
10.1161
11.1474
12.2322
13.3707
14.5632
15.8105
17.1196
18.5299
20.2465
23.3952
35.4726
0.21517
0.355833
0.523449
0.722174
0.954095
1.22294
1.53323
1.88953
2.29543
2.75315
3.26375
3.82766
4.44503
5.1158
5.83987
6.61702
7.44701
8.32219
9.24234
10.2147
11.2394
12.3167
13.4469
14.6302
15.868
17.1675
18.5695
20.2842
23.4542
35.5235
0.251892
0.396432
0.568435
0.771962
1.00961
1.28534
1.60338
1.96776
2.38154
2.84655
3.36367
3.93324
4.55532
5.22984
5.95663
6.73545
7.56599
8.43086
9.34647
10.3131
11.3312
12.4009
13.5227
14.6969
15.9251
17.2153
18.6093
20.3228
23.5139
35.5717
0.291637
0.440135
0.616609
0.824932
1.0681
1.35039
1.67588
2.04813
2.46973
2.94207
3.4658
4.04111
4.66799
5.34631
6.07587
6.85639
7.67881
8.54007
9.45094
10.4118
11.423
12.485
13.5983
14.7634
15.9821
17.2629
18.6493
20.3619
23.574
35.6173
0.334621
0.487018
0.667928
0.881012
1.12959
1.41822
1.75093
2.13093
2.56027
3.03997
3.57036
4.15148
4.78322
5.4654
6.19777
6.98001
7.79247
8.6499
9.55583
10.5107
11.515
12.5691
13.6738
14.8297
16.039
17.3104
18.6892
20.4012
23.6341
35.66
0.38106
0.537218
0.722437
0.940201
1.19409
1.48893
1.82873
2.21634
2.65338
3.14043
3.67752
4.2645
4.90115
5.58724
6.32245
7.10064
7.90708
8.76045
9.66122
10.6099
11.607
12.6532
13.7492
14.8958
16.0955
17.3576
18.7288
20.4405
23.6939
35.6999
0.431177
0.5909
0.780238
1.00255
1.26166
1.56262
1.9094
2.30455
2.74924
3.24364
3.78745
4.38033
5.02194
5.71196
6.45001
7.21948
8.02272
8.87178
9.76717
10.7095
11.6993
12.7373
13.8244
14.9617
16.1517
17.4043
18.7679
20.4794
23.7531
35.7367
0.485207
0.648247
0.841461
1.06816
1.33237
1.63938
1.99308
2.39571
2.84802
3.34976
3.90031
4.49911
5.14571
5.83967
6.58056
7.3397
8.13949
8.98399
9.87376
10.8094
11.7917
12.8214
13.8995
15.0272
16.2073
17.4504
18.8063
20.5178
23.8116
35.7704
0.543398
0.709458
0.906262
1.13713
1.40634
1.71932
2.07989
2.48996
2.94987
3.45895
4.01626
4.62101
5.27259
5.97049
6.70844
7.4614
8.25745
9.09711
9.981
10.9098
11.8844
12.9055
13.9743
15.0923
16.2623
17.4956
18.8438
20.5555
23.8692
35.8008
0.606015
0.774746
0.974809
1.20961
1.48367
1.80256
2.16996
2.58746
3.05496
3.57138
4.13545
4.74615
5.40272
6.10457
6.83463
7.58466
8.37665
9.2112
10.0889
11.0106
11.9772
12.9895
14.0489
15.1568
16.3165
17.5398
18.8802
20.5922
23.9257
35.8278
0.673338
0.844336
1.04729
1.28574
1.56449
1.88921
2.26343
2.68835
3.16344
3.68719
4.25803
4.87468
5.53625
6.24202
6.96276
7.70953
8.49717
9.32629
10.1976
11.1119
12.0701
13.0734
14.123
15.2206
16.3698
17.5829
18.9154
20.6278
23.9809
35.8512
0.745665
0.918469
1.12389
1.36569
1.64895
1.97943
2.36043
2.79277
3.27545
3.80655
4.38415
5.00677
5.67332
6.38297
7.09292
7.8361
8.61905
9.44241
10.307
11.2135
12.1632
13.1571
14.1966
15.2837
16.422
17.6246
18.9492
20.6621
24.0347
35.8707
0.823311
0.997399
1.20484
1.44965
1.73722
2.07335
2.46111
2.90088
3.39116
3.92962
4.51399
5.14255
5.81407
6.52412
7.22519
7.9644
8.74232
9.5596
10.417
11.3156
12.2564
13.2406
14.2697
15.3458
16.473
17.6649
18.9813
20.6951
24.0869
35.8862
0.906614
1.0814
1.29034
1.53779
1.82945
2.17114
2.56564
3.01283
3.51073
4.05655
4.6477
5.2822
5.95866
6.66178
7.35962
8.09452
8.86703
9.67786
10.5279
11.418
12.3495
13.3237
14.3421
15.407
16.5226
17.7035
19.0118
20.7264
24.1373
35.8974
0.995929
1.17075
1.38064
1.63033
1.92582
2.27297
2.67417
3.1288
3.63432
4.18752
4.78544
5.42588
6.10725
6.80208
7.4963
8.22648
8.99321
9.79721
10.6394
11.5208
12.4427
13.4064
14.4137
15.467
16.5707
17.7403
19.0404
20.7561
24.1857
35.904
1.09164
1.26577
1.476
1.72748
2.02655
2.37902
2.78689
3.24895
3.76212
4.32271
4.92741
5.57376
6.26001
6.9451
7.63528
8.36034
9.12088
9.91766
10.7516
11.6239
12.5357
13.4886
14.4844
15.5256
16.6172
17.7752
19.0669
20.7838
24.2319
35.9058
1.19414
1.36677
1.57668
1.82947
2.13183
2.48948
2.90397
3.37348
3.89432
4.4623
5.07377
5.72603
6.41711
7.09093
7.77663
8.49614
9.25007
10.0392
10.8645
11.7272
12.6286
13.5703
14.5542
15.5829
16.6618
17.808
19.0912
20.8095
24.2758
35.9024
1.30386
1.47411
1.68297
1.93656
2.24189
2.60457
3.02563
3.50259
4.0311
4.60649
5.22474
5.88287
6.57874
7.23964
7.92042
8.63393
9.38081
10.1619
10.9781
11.8307
12.7212
13.6512
14.6227
15.6386
16.7046
17.8386
19.1132
20.8329
24.317
35.8935
1.42126
1.58815
1.79518
2.04901
2.35697
2.72451
3.15208
3.63647
4.17268
4.75548
5.3805
6.04448
6.74509
7.39131
8.0667
8.77374
9.51309
10.2856
11.0923
11.9344
12.8136
13.7314
14.6901
15.6927
16.7451
17.8667
19.1326
20.8539
24.3553
35.8787
1.54683
1.70929
1.91364
2.16711
2.47732
2.84953
3.28355
3.77537
4.31927
4.9095
5.54128
6.21108
6.9068
7.54604
8.21552
8.91561
9.64694
10.4104
11.2071
12.0382
12.9055
13.8107
14.7561
15.7448
16.7834
17.8922
19.1493
20.8723
24.3904
35.8577
1.68108
1.83794
2.0387
2.29115
2.60322
2.9799
3.42029
3.91952
4.47113
5.06878
5.70731
6.3829
7.07002
7.7039
8.36696
9.05956
9.78236
10.5363
11.3224
12.1421
12.997
13.889
14.8205
15.795
16.8193
17.9149
19.1631
20.8878
24.4222
35.83
1.82455
1.97457
2.17074
2.42147
2.73497
3.11588
3.56254
4.06917
4.62849
5.23357
5.87883
6.56016
7.23703
7.86496
8.52105
9.20562
9.91935
10.6632
11.4382
12.2458
13.0878
13.9662
14.8833
15.843
16.8525
17.9347
19.1738
20.9002
24.4502
35.7952
1.97785
2.11965
2.31015
2.55842
2.87287
3.25778
3.71061
4.2246
4.79162
5.40413
6.0561
6.74313
7.40791
8.02932
8.67784
9.35382
10.0579
10.791
11.5544
12.3495
13.178
14.0421
14.9443
15.8886
16.8829
17.9513
19.1811
20.9093
24.4741
35.7529
2.1416
2.2737
2.45738
2.70236
3.01727
3.40591
3.86479
4.3861
4.96083
5.58075
6.2394
6.93208
7.58277
8.19703
8.83739
9.50416
10.198
10.9199
11.671
12.4529
13.2674
14.1166
15.0034
15.9318
16.9103
17.9645
19.185
20.9148
24.4937
35.7025
2.31648
2.43726
2.61288
2.8537
3.16852
3.5606
4.0254
4.55399
5.1364
5.76373
6.42903
7.12729
7.76174
8.36819
8.99973
9.65667
10.3397
11.0497
11.788
12.5561
13.3559
14.1897
15.0603
15.9722
16.9345
17.9741
19.1851
20.9164
24.5085
35.6436
2.50322
2.61095
2.77715
3.01288
3.32702
3.72222
4.1928
4.72861
5.31869
5.9534
6.62531
7.32908
7.9449
8.54285
9.1649
9.81133
10.4828
11.1803
11.9051
12.6588
13.4433
14.261
15.1149
16.0098
16.9553
17.98
19.1812
20.914
24.5182
35.5756
2.70258
2.79538
2.95074
3.18036
3.49319
3.89116
4.36735
4.91032
5.50803
6.1501
6.82858
7.53778
8.13237
8.72107
9.33291
9.96814
10.6274
11.3117
12.0223
12.761
13.5295
14.3305
15.1671
16.0443
16.9725
17.9818
19.1731
20.9071
24.5223
35.498
2.91541
2.99125
3.13421
3.35664
3.66749
4.06785
4.54948
5.09953
5.70484
6.35422
7.03921
7.75375
8.32423
8.90291
9.50379
10.1271
10.7734
11.4438
12.1396
12.8624
13.6144
14.3979
15.2165
16.0754
16.9858
17.9793
19.1605
20.8954
24.5205
35.41
3.14262
3.19931
3.32819
3.54226
3.85039
4.25275
4.73961
5.29665
5.90951
6.56617
7.25761
7.97462
8.52057
9.08841
9.67753
10.2881
10.9208
11.5766
12.2568
12.9631
13.6977
14.4632
15.2631
16.1031
16.9951
17.9724
19.1431
20.8787
24.5122
35.3112
3.38518
3.42036
3.53336
3.73782
4.04245
4.44635
4.93823
5.50216
6.12252
6.7864
7.48419
8.18643
8.72148
9.2776
9.85412
10.4512
11.0694
11.7098
12.3737
13.0628
13.7793
14.526
15.3066
16.127
17
17.9607
19.1206
20.8566
24.4971
35.2008
3.64415
3.65526
3.75044
3.94394
4.24422
4.6492
5.14586
5.71657
6.34436
7.01538
7.71943
8.40383
8.927
9.47048
10.0335
10.6162
11.2191
11.8433
12.4901
13.1613
13.8591
14.5862
15.3467
16.1469
17.0003
17.9439
19.0929
20.8288
24.4745
35.0782
3.92067
3.90496
3.98024
4.16133
4.45635
4.86189
5.36307
5.94043
6.57556
7.25365
7.96385
8.6269
9.13716
9.66703
10.2157
10.7831
11.3699
11.9771
12.606
13.2585
13.9367
14.6436
15.3833
16.1626
16.9958
17.9219
19.0595
20.7947
24.4441
34.9426
4.21601
4.17049
4.22362
4.39074
4.67952
5.08507
5.59049
6.17435
6.81674
7.50179
8.21799
8.85573
9.35199
9.86721
10.4005
10.9517
11.5215
12.1109
12.7211
13.354
14.0119
14.6978
15.4161
16.1737
16.9863
17.8943
19.0201
20.7542
24.4052
34.7934
4.53151
4.45297
4.48152
4.63299
4.91448
5.31946
5.8288
6.41901
7.06854
7.76043
8.48246
9.09035
9.57143
10.0709
10.5878
11.1219
11.6738
12.2444
12.8351
13.4477
14.0846
14.7488
15.4448
16.1802
16.9714
17.8609
18.9746
20.7067
24.3574
34.6297
4.86868
4.75362
4.75498
4.88901
5.16208
5.56584
6.07878
6.67516
7.33169
8.03028
8.75793
9.33074
9.79542
10.278
10.7774
11.2934
11.8264
12.3775
12.9478
13.5393
14.1543
14.796
15.4691
16.1816
16.9509
17.8214
18.9225
20.652
24.2999
34.4508
5.22915
5.07381
5.04516
5.15978
5.42323
5.8251
6.34128
6.94362
7.60701
8.3121
9.04511
9.57682
10.0238
10.4883
10.9691
11.4659
11.9792
12.5097
13.0589
13.6285
14.2209
14.8394
15.4889
16.1778
16.9245
17.7756
18.8635
20.5895
24.2324
34.2559
5.61475
5.41502
5.3533
5.44644
5.69895
6.09821
6.61726
7.22534
7.8954
8.60676
9.34481
9.82844
10.2563
10.7015
11.1625
11.6392
12.1316
12.6408
13.168
13.715
14.284
14.8786
15.5038
16.1685
16.8921
17.7231
18.7975
20.519
24.1542
34.0443
6.02749
5.77891
5.68081
5.75021
5.99042
6.38628
6.90778
7.52136
8.19785
8.9152
9.65789
10.0853
10.4927
10.9172
11.3573
11.8127
12.2834
12.7704
13.2747
13.7983
14.3433
14.9133
15.5135
16.1535
16.8534
17.6639
18.7241
20.4401
24.0647
33.8151
6.46963
6.16735
6.02929
6.07252
6.29892
6.69056
7.21407
7.83286
8.51551
9.23847
9.98316
10.3471
10.7323
11.1348
11.5529
11.9859
12.434
12.8979
13.3787
13.8781
14.3985
14.9433
15.5179
16.1324
16.8082
17.5977
18.6431
20.3523
23.9634
33.5676
6.9437
6.58242
6.40049
6.41493
6.62593
7.01249
7.53753
8.16121
8.84966
9.57774
10.2733
10.613
10.9747
11.3538
11.7486
12.1582
12.5828
13.0228
13.4793
13.954
14.4491
14.9681
15.5167
16.1053
16.7564
17.5243
18.5543
20.2554
23.8497
33.301
7.45259
7.02649
6.79646
6.77927
6.97317
7.3537
7.87977
8.50793
9.20171
9.93427
10.5688
10.8824
11.2188
11.5733
11.9436
12.3289
12.729
13.1445
13.5761
14.0255
14.4948
14.9876
15.5097
16.0719
16.6978
17.4438
18.4576
20.1492
23.7232
33.0146
7.99963
7.5023
7.21952
7.16763
7.34262
7.71614
8.24264
8.87479
9.57327
10.3094
10.8683
11.1541
11.4637
11.7921
12.1368
12.4969
12.872
13.2622
13.6685
14.0922
14.5354
15.0016
15.4968
16.0322
16.6326
17.3561
18.3529
20.0334
23.5834
32.7079
8.58867
8.01303
7.6724
7.58247
7.73659
8.10202
8.62831
9.26379
9.96612
10.7047
11.1704
11.4264
11.7077
12.0088
12.3271
12.6613
13.0106
13.3753
13.7559
14.1536
14.5704
15.0098
15.4778
15.9863
16.5608
17.2613
18.2405
19.908
23.4301
32.3801
9.22429
8.56243
8.15832
8.02672
8.15785
8.51404
9.03929
9.67723
10.3822
11.1215
11.4729
11.6973
11.949
12.2219
12.513
12.8206
13.144
13.4829
13.8376
14.2093
14.5997
15.0122
15.453
15.9343
16.4827
17.1598
18.1204
19.7731
23.2628
32.0307
9.91212
9.15506
8.68116
8.50386
8.60969
8.9553
9.47847
10.1176
10.8234
11.561
11.7728
11.9642
12.1851
12.4291
12.6925
12.9735
13.2708
13.584
13.9131
14.2589
14.623
15.0088
15.4225
15.8767
16.3988
17.0522
17.9932
19.629
23.0817
31.6595
10.6588
9.79649
9.24573
9.01828
9.09624
9.42969
9.94934
10.5877
11.2917
11.9548
12.0662
12.2235
12.413
12.6278
12.8636
13.1181
13.3897
13.6776
13.9815
14.3019
14.6403
14.9998
15.3867
15.8139
16.3099
16.9392
17.8598
19.4763
22.887
31.2662
11.4741
10.494
9.8579
9.57503
9.62203
9.9412
10.4551
11.0898
11.788
12.2753
12.348
12.4709
12.6292
12.8151
13.0239
13.2527
13.4994
13.7629
14.0424
14.3383
14.6516
14.9855
15.3462
15.7471
16.2171
16.8223
17.7214
19.3161
22.6792
30.8508
12.3674
11.2565
10.5258
10.1816
10.1941
10.4961
11.001
11.6274
12.3139
12.5761
12.6106
12.6999
12.8282
12.9866
13.1699
13.3745
13.5978
13.8382
14.0948
14.3673
14.6569
14.9663
15.3019
15.6771
16.1218
16.703
17.5799
19.1501
22.4599
30.4144
13.3637
12.0982
11.2582
10.8438
10.8158
11.0958
11.5854
12.1959
12.8616
12.8501
12.8483
12.9062
13.0066
13.1399
13.2999
13.4823
13.6843
13.9036
14.139
14.39
14.6574
14.9439
15.2557
15.6067
16.0271
16.5847
17.4389
18.982
22.2318
29.9579
14.4645
13.0329
12.0724
11.5797
11.5051
11.7561
12.222
12.8054
13.2045
13.0748
13.0427
13.0746
13.1523
13.2649
13.4056
13.5696
13.7535
13.9548
14.1718
14.404
14.6517
14.9175
15.2078
15.5365
15.9344
16.4697
17.3012
18.8152
21.9989
29.4877
15.785
14.0991
12.9723
12.3752
12.2358
12.4409
12.8636
13.3987
13.419
13.2598
13.2035
13.215
13.2748
13.3711
13.4964
13.6454
13.8144
14.0005
14.2019
14.4177
14.6482
14.8958
15.1669
15.4757
15.8532
16.368
17.1778
18.661
21.7714
29.0043
17.1849
15.3049
14.0225
13.3161
13.0993
13.2407
13.5985
13.8158
13.4882
13.3252
13.2651
13.2728
13.3282
13.4195
13.5391
13.6815
13.8429
14.0204
14.2121
14.417
14.6354
14.8697
15.1262
15.4193
15.7803
16.2779
17.068
18.5207
21.5564
28.5439
19.4432
16.7671
15.0758
14.1415
13.7723
13.7833
14.0023
13.9067
13.5933
13.4343
13.3751
13.3817
13.4343
13.5215
13.6355
13.7711
13.9244
14.0927
14.2739
14.4671
14.6725
14.8926
15.1338
15.4109
15.7556
16.2367
17.0082
18.4294
21.3792
28.0663
21.0651
18.5
16.6553
15.4979
14.9006
14.6103
14.0247
13.5692
13.339
13.2467
13.2378
13.2826
13.3645
13.4742
13.6056
13.7544
13.9176
14.0929
14.2787
14.4743
14.6801
14.8987
15.1366
15.4085
15.7459
16.2172
16.9743
18.3695
21.2578
27.7782
27.6068
20.0371
16.7089
15.0392
14.1943
13.8303
13.7079
13.6491
13.5962
13.5749
13.5915
13.64
13.7142
13.8096
13.9226
14.0506
14.191
14.3421
14.5026
14.6717
14.85
15.0403
15.2494
15.4923
15.8011
16.2435
16.9672
18.3069
21.0605
27.1878
33.3992
22.3946
17.5988
15.4772
14.5043
14.04
13.7472
13.532
13.4117
13.3694
13.3812
13.431
13.5095
13.6109
13.731
13.8668
14.0161
14.1768
14.3479
14.5288
14.7205
14.926
15.1528
15.4168
15.7508
16.224
16.9839
18.3593
21.1183
27.1227
29.066
22.8827
18.8708
16.4177
15.0475
14.3636
14.0967
14.0695
14.1652
14.2989
14.3953
14.4373
14.4698
14.5166
14.5828
14.6675
14.7687
14.8843
15.0125
15.1521
15.3034
15.4687
15.6546
15.8758
16.1639
16.5859
17.286
18.5873
21.2568
27.1379
30.1537
24.3102
20.2225
17.6221
16.0819
15.2476
14.8616
14.7413
14.7392
14.6732
14.5955
14.5601
14.5618
14.5933
14.6496
14.7264
14.8207
14.9298
15.0516
15.1851
15.3303
15.4894
15.6689
15.8833
16.164
16.5774
17.2673
18.5566
21.2049
27.0015
29.3675
24.3767
20.6641
18.1379
16.5432
15.6167
15.1415
14.9521
14.9318
15.0036
15.0367
14.9857
14.9688
14.9815
15.0187
15.0762
15.1509
15.2401
15.342
15.4551
15.5794
15.717
15.8742
16.0652
16.3213
16.7088
17.3722
18.6351
21.2575
26.9975
29.1943
24.6248
21.1093
18.6352
17.0168
16.0365
15.5015
15.2566
15.1882
15.2205
15.2142
15.1627
15.1466
15.1579
15.1915
15.2437
15.3116
15.3929
15.4855
15.5884
15.7016
15.8271
15.9711
16.148
16.3889
16.7608
17.409
18.6596
21.2737
26.9751
28.945
24.6739
21.3316
18.9254
17.3133
16.309
15.7382
15.4558
15.3525
15.3536
15.378
15.3313
15.3168
15.3271
15.3575
15.4046
15.4659
15.5392
15.6228
15.7155
15.8174
15.9306
16.0614
16.2241
16.4503
16.8076
17.4429
18.6854
21.2973
26.9746
28.7841
24.7149
21.4952
19.1426
17.5414
16.5251
15.9318
15.6237
15.4947
15.4715
15.4814
15.4421
15.432
15.4438
15.4733
15.5177
15.5747
15.6423
15.7189
15.8036
15.8965
15.9998
16.1198
16.2712
16.4859
16.8324
17.4595
18.6953
21.3064
26.9749
28.6499
24.7291
21.6022
19.2925
17.7033
16.6819
16.0748
15.7492
15.602
15.5607
15.5578
15.5263
15.5209
15.5348
15.5643
15.6068
15.6603
15.7231
15.7938
15.8715
15.9565
16.0511
16.1618
16.3037
16.509
16.8474
17.4626
18.6684
21.3086
26.9795
28.5453
24.7384
21.682
19.4047
17.8249
16.8007
16.1843
15.8465
15.686
15.6312
15.6099
15.586
15.5856
15.6022
15.6323
15.6737
15.7246
15.7835
15.8493
15.9211
15.9995
16.0868
16.1899
16.324
16.5221
16.8547
17.4293
18.6541
21.3192
26.9854
28.4594
24.744
21.7433
19.4904
17.9171
16.8904
16.2671
15.9203
15.7501
15.6854
15.6455
15.6287
15.6332
15.6527
15.6838
15.7247
15.7737
15.8295
15.8912
15.9581
16.0309
16.1121
16.2088
16.3367
16.5293
16.8218
17.4058
18.6483
21.3352
26.9926
28.3883
24.7491
21.7935
19.5591
17.9895
16.9596
16.3304
15.9767
15.7991
15.7121
15.6688
15.6583
15.6675
15.6899
15.7223
15.7631
15.8107
15.8642
15.9225
15.9854
16.0535
16.1297
16.2213
16.3443
16.5064
16.7952
17.3895
18.6482
21.3548
27.0005
28.328
24.7542
21.8363
19.6163
18.0478
17.014
16.3791
16.0171
15.8155
15.7199
15.683
15.6782
15.6916
15.7168
15.7507
15.7917
15.8385
15.89
15.9457
16.0053
16.0696
16.1418
16.2293
16.3296
16.4801
16.7746
17.3783
18.6522
21.3765
27.0088
28.2762
24.7597
21.8743
19.6655
18.0964
17.0574
16.3909
16.0107
15.8129
15.7223
15.6907
15.6906
15.7078
15.7357
15.7712
15.8126
15.8588
15.9091
15.9627
16.0196
16.0809
16.1499
16.2199
16.3053
16.4587
16.7584
17.3711
18.6592
21.3997
27.0174
28.2308
24.7657
21.9088
19.709
18.1378
17.055
16.3847
16.0039
15.8081
15.721
15.6935
15.6974
15.718
15.7483
15.7853
15.8274
15.8734
15.9227
15.9747
16.0296
16.0885
16.1431
16.1983
16.2849
16.4411
16.7457
17.3668
18.6685
21.424
27.0264
28.1906
24.7719
21.9407
19.7484
18.1488
17.0555
16.3801
15.9972
15.8019
15.7171
15.6928
15.7
15.7234
15.756
15.7945
15.8373
15.8833
15.9319
15.9828
16.0361
16.083
16.1244
16.1798
16.2677
16.4265
16.7357
17.3648
18.6794
21.4489
27.0356
28.1544
24.7784
21.9706
19.7847
18.1597
17.0587
16.3772
15.991
15.795
15.7115
15.6896
15.6994
15.7253
15.7599
15.7998
15.8433
15.8895
15.9377
15.9878
16.0316
16.0671
16.1082
16.1639
16.253
16.4142
16.7279
17.3647
18.6917
21.4743
27.045
28.1215
24.785
21.9989
19.8178
18.1734
17.0643
16.3758
15.9853
15.7878
15.7047
15.6844
15.6963
15.7244
15.7607
15.8019
15.8461
15.8926
15.9407
15.9852
16.0182
16.0531
16.0939
16.15
16.2403
16.4039
16.7218
17.366
18.705
21.5002
27.0546
28.0912
24.7916
22.0257
19.839
18.1892
17.0719
16.3758
15.9804
15.7805
15.6972
15.678
15.6915
15.7212
15.7591
15.8014
15.8465
15.8933
15.9414
15.974
16.0061
16.0405
16.0813
16.1378
16.2293
16.3951
16.7171
17.3686
18.7193
21.5263
27.0643
28.063
24.7981
22.0514
19.8612
18.2068
17.081
16.3771
15.9761
15.7733
15.6892
15.6705
15.6853
15.7165
15.7557
15.7991
15.8448
15.8921
15.9326
15.9635
15.9951
16.0291
16.0699
16.1269
16.2196
16.3877
16.7136
17.3722
18.7343
21.5526
27.074
28.0365
24.8045
22.076
19.8846
18.2257
17.0915
16.3795
15.9726
15.7664
15.681
15.6624
15.6781
15.7104
15.7507
15.7951
15.8415
15.8892
15.9234
15.9537
15.9848
16.0186
16.0596
16.1172
16.211
16.3812
16.7111
17.3766
18.75
21.579
27.0838
28.0115
24.8107
22.0996
19.9086
18.2456
17.1031
16.3828
15.9697
15.7598
15.6727
15.6539
15.6701
15.7034
15.7447
15.7898
15.837
15.885
15.9145
15.9444
15.9752
16.0089
16.0501
16.1083
16.2033
16.3756
16.7093
17.3817
18.7661
21.6055
27.0936
27.9877
24.8166
22.1223
19.9332
18.2662
17.1157
16.387
15.9675
15.7535
15.6644
15.6451
15.6616
15.6956
15.7377
15.7836
15.8314
15.8766
15.9058
15.9354
15.9661
15.9999
16.0413
16.1001
16.1963
16.3707
16.7083
17.3875
18.7826
21.632
27.1033
27.9648
24.8222
22.1441
19.958
18.2875
17.129
16.392
15.9658
15.7475
15.6562
15.6361
15.6528
15.6873
15.7301
15.7767
15.825
15.8683
15.8973
15.9268
15.9574
15.9913
16.033
16.0925
16.1899
16.3664
16.7077
17.3938
18.7995
21.6583
27.1129
27.9428
24.8275
22.1652
19.9828
18.3091
17.1429
16.3976
15.9647
15.7419
15.6482
15.627
15.6436
15.6785
15.7219
15.7691
15.8179
15.86
15.8889
15.9184
15.9491
15.9831
16.0252
16.0854
16.184
16.3626
16.7077
17.4004
18.8167
21.6846
27.1224
27.9215
24.8325
22.1855
20.0077
18.3311
17.1573
16.4038
15.9641
15.7367
15.6403
15.618
15.6344
15.6695
15.7133
15.761
15.8103
15.8517
15.8806
15.9101
15.941
15.9753
16.0178
16.0787
16.1784
16.3592
16.7081
17.4075
18.8341
21.7107
27.1318
27.9008
24.8372
22.2052
20.0324
18.3532
17.1722
16.4105
15.964
15.7318
15.6326
15.609
15.625
15.6603
15.7045
15.7526
15.8024
15.8434
15.8724
15.9021
15.9331
15.9677
16.0107
16.0723
16.1733
16.3561
16.7088
17.4149
18.8516
21.7366
27.1409
27.8806
24.8416
22.2241
20.0569
18.3753
17.1874
16.4177
15.9643
15.7272
15.6251
15.6
15.6156
15.6509
15.6955
15.744
15.7941
15.8351
15.8643
15.8941
15.9254
15.9603
16.0038
16.0662
16.1684
16.3533
16.7098
17.4225
18.8693
21.7624
27.1499
27.8608
24.8457
22.2425
20.0811
18.3975
17.2029
16.4253
15.965
15.723
15.6178
15.5912
15.6062
15.6415
15.6863
15.7351
15.7856
15.8268
15.8562
15.8863
15.9178
15.9531
15.9971
16.0602
16.1637
16.3508
16.711
17.4303
18.887
21.7878
27.1586
27.8414
24.8494
22.2602
20.105
18.4197
17.2186
16.4332
15.9661
15.719
15.6107
15.5825
15.5968
15.632
15.677
15.7262
15.777
15.8186
15.8482
15.8785
15.9104
15.946
15.9906
16.0545
16.1592
16.3484
16.7124
17.4384
18.9048
21.813
27.1672
27.8224
24.8529
22.2774
20.1285
18.4417
17.2344
16.4414
15.9675
15.7154
15.6039
15.574
15.5875
15.6226
15.6677
15.7171
15.7682
15.8103
15.8402
15.8708
15.903
15.9391
15.9842
16.0489
16.1549
16.3463
16.7141
17.4466
18.9226
21.838
27.1754
27.8037
24.856
22.294
20.1517
18.4636
17.2504
16.45
15.9692
15.7121
15.5973
15.5655
15.5783
15.6132
15.6583
15.708
15.7594
15.802
15.8322
15.8632
15.8957
15.9323
15.978
16.0435
16.1507
16.3442
16.7158
17.4549
18.9405
21.8626
27.1835
27.7852
24.8589
22.3101
20.1745
18.4854
17.2665
16.4587
15.9712
15.709
15.5909
15.5573
15.5692
15.6038
15.649
15.6988
15.7505
15.7938
15.8243
15.8556
15.8886
15.9255
15.9718
16.0382
16.1467
16.3423
16.7178
17.4633
18.9583
21.887
27.1913
27.767
24.8614
22.3257
20.1969
18.507
17.2827
16.4677
15.9736
15.7062
15.5847
15.5492
15.5602
15.5945
15.6397
15.6897
15.7416
15.7856
15.8165
15.8481
15.8814
15.9189
15.9657
16.0329
16.1427
16.3405
16.7198
17.4719
18.9761
21.911
27.1988
27.7491
24.8637
22.3408
20.2188
18.5284
17.2989
16.4769
15.9761
15.7036
15.5788
15.5413
15.5513
15.5852
15.6304
15.6806
15.7327
15.7774
15.8086
15.8406
15.8744
15.9123
15.9597
16.0277
16.1388
16.3388
16.7219
17.4805
18.9938
21.9347
27.2061
27.7313
24.8657
22.3554
20.2404
18.5495
17.3151
16.4863
15.9789
15.7013
15.573
15.5335
15.5425
15.5761
15.6212
15.6715
15.7238
15.7693
15.8008
15.8332
15.8674
15.9057
15.9538
16.0226
16.135
16.3372
16.7241
17.4892
19.0115
21.9581
27.2131
27.7137
24.8675
22.3696
20.2615
18.5705
17.3313
16.4958
15.982
15.6992
15.5674
15.5259
15.5338
15.567
15.6121
15.6624
15.7149
15.7612
15.7931
15.8258
15.8604
15.8992
15.9479
16.0176
16.1313
16.3357
16.7264
17.4979
19.0291
21.9812
27.2199
27.6964
24.869
22.3834
20.2823
18.5912
17.3475
16.5054
15.9852
15.6973
15.5621
15.5184
15.5253
15.558
15.603
15.6535
15.7061
15.7531
15.7854
15.8185
15.8535
15.8928
15.942
16.0126
16.1276
16.3342
16.7288
17.5067
19.0466
22.0039
27.2264
27.6791
24.8703
22.3967
20.3026
18.6117
17.3636
16.5152
15.9887
15.6957
15.5569
15.5111
15.5169
15.5492
15.594
15.6445
15.6973
15.7451
15.7777
15.8112
15.8466
15.8864
15.9362
16.0076
16.1239
16.3328
16.7312
17.5155
19.0641
22.0264
27.2326
27.6621
24.8714
22.4097
20.3226
18.6319
17.3797
16.5251
15.9923
15.6943
15.5519
15.504
15.5086
15.5404
15.5851
15.6357
15.6886
15.7372
15.7701
15.804
15.8397
15.88
15.9305
16.0027
16.1203
16.3314
16.7337
17.5244
19.0814
22.0485
27.2386
27.6452
24.8722
22.4223
20.3421
18.6519
17.3958
16.5351
15.9961
15.693
15.5471
15.497
15.5005
15.5317
15.5763
15.6269
15.68
15.7292
15.7625
15.7968
15.8329
15.8737
15.9247
15.9978
16.1168
16.3301
16.7363
17.5332
19.0987
22.0703
27.2444
27.6285
24.8729
22.4345
20.3612
18.6716
17.4118
16.5452
16.0001
15.692
15.5425
15.4902
15.4925
15.5231
15.5676
15.6182
15.6714
15.7214
15.755
15.7896
15.8262
15.8674
15.919
15.993
16.1133
16.3288
16.7389
17.5422
19.1159
22.0918
27.2499
27.6119
24.8733
22.4464
20.38
18.6911
17.4277
16.5553
16.0043
15.6911
15.538
15.4835
15.4845
15.5147
15.5589
15.6095
15.6628
15.7135
15.7475
15.7825
15.8194
15.8611
15.9134
15.9882
16.1098
16.3276
16.7415
17.5511
19.1329
22.1129
27.2552
27.5954
24.8736
22.4579
20.3984
18.7103
17.4435
16.5656
16.0086
15.6904
15.5337
15.4769
15.4768
15.5063
15.5503
15.601
15.6544
15.7057
15.7401
15.7754
15.8128
15.8549
15.9078
15.9834
16.1063
16.3264
16.7442
17.56
19.1499
22.1338
27.2603
27.5791
24.8737
22.4692
20.4165
18.7293
17.4593
16.5758
16.013
15.6899
15.5296
15.4705
15.4691
15.498
15.5419
15.5925
15.646
15.698
15.7327
15.7683
15.8061
15.8487
15.9022
15.9786
16.1029
16.3252
16.7469
17.569
19.1667
22.1543
27.2651
27.5629
24.8736
22.4801
20.4342
18.7481
17.4749
16.5862
16.0176
15.6895
15.5257
15.4643
15.4616
15.4899
15.5335
15.5841
15.6377
15.6903
15.7253
15.7613
15.7995
15.8426
15.8966
15.9739
16.0995
16.3241
16.7497
17.5779
19.1834
22.1745
27.2697
27.5468
24.8734
22.4906
20.4515
18.7666
17.4905
16.5966
16.0223
15.6893
15.5219
15.4582
15.4541
15.4818
15.5252
15.5757
15.6294
15.6827
15.718
15.7544
15.7929
15.8364
15.891
15.9692
16.0962
16.323
16.7525
17.5869
19.2001
22.1944
27.2741
27.5308
24.873
22.5009
20.4685
18.7848
17.506
16.607
16.0271
15.6893
15.5182
15.4522
15.4468
15.4738
15.5169
15.5675
15.6212
15.6751
15.7107
15.7474
15.7863
15.8303
15.8855
15.9645
16.0929
16.322
16.7553
17.5959
19.2166
22.2141
27.2783
27.515
24.8724
22.511
20.4852
18.8028
17.5214
16.6174
16.0321
15.6894
15.5147
15.4463
15.4396
15.466
15.5088
15.5593
15.6131
15.6676
15.7035
15.7405
15.7798
15.8242
15.88
15.9599
16.0896
16.321
16.7582
17.6049
19.233
22.2334
27.2823
27.4993
24.8717
22.5207
20.5016
18.8206
17.5367
16.6279
16.0371
15.6897
15.5114
15.4406
15.4325
15.4582
15.5008
15.5512
15.6051
15.6601
15.6963
15.7337
15.7733
15.8182
15.8746
15.9553
16.0863
16.32
16.7611
17.6138
19.2493
22.2525
27.2861
27.4837
24.8709
22.5302
20.5167
18.8381
17.5518
16.6384
16.0423
15.6901
15.5082
15.435
15.4256
15.4505
15.4928
15.5432
15.5971
15.6524
15.6892
15.7268
15.7669
15.8122
15.8691
15.9507
16.0831
16.319
16.7641
17.6228
19.2655
22.2712
27.2897
27.4682
24.8699
22.5394
20.5313
18.8555
17.5669
16.6489
16.0476
15.6906
15.5051
15.4296
15.4187
15.4429
15.4849
15.5352
15.5892
15.6446
15.6821
15.7201
15.7604
15.8062
15.8637
15.9461
16.0799
16.3181
16.7671
17.6318
19.2815
22.2897
27.2931
27.4528
24.8688
22.5484
20.5457
18.8725
17.5819
16.6594
16.0529
15.6913
15.5022
15.4242
15.4119
15.4354
15.4771
15.5273
15.5813
15.6368
15.675
15.7133
15.754
15.8002
15.8583
15.9416
16.0767
16.3173
16.7701
17.6408
19.2975
22.308
27.2963
27.4376
24.8676
22.5571
20.5599
18.8894
17.5967
16.67
16.0584
15.6921
15.4994
15.419
15.4053
15.428
15.4694
15.5195
15.5735
15.6291
15.668
15.7066
15.7477
15.7943
15.853
15.9371
16.0735
16.3164
16.7732
17.6498
19.3133
22.3259
27.2993
27.4224
24.8663
22.5656
20.5738
18.906
17.6115
16.6805
16.0639
15.693
15.4968
15.4139
15.3987
15.4207
15.4617
15.5117
15.5658
15.6215
15.661
15.6999
15.7414
15.7884
15.8476
15.9326
16.0704
16.3156
16.7762
17.6587
19.329
22.3436
27.3021
27.4074
24.8648
22.5739
20.5875
18.9225
17.6261
16.6911
16.0695
15.6941
15.4943
15.409
15.3923
15.4135
15.4541
15.504
15.5581
15.6139
15.6541
15.6933
15.7351
15.7825
15.8423
15.9281
16.0673
16.3149
16.7794
17.6677
19.3446
22.361
27.3048
27.3924
24.8633
22.5819
20.6009
18.9387
17.6406
16.7016
16.0753
15.6953
15.4919
15.4041
15.3859
15.4063
15.4466
15.4964
15.5505
15.6064
15.6472
15.6867
15.7288
15.7767
15.837
15.9237
16.0642
16.3141
16.7825
17.6767
19.3601
22.3782
27.3073
27.3776
24.8617
22.5897
20.6141
18.9546
17.6551
16.7122
16.081
15.6966
15.4896
15.3994
15.3797
15.3993
15.4392
15.4889
15.543
15.599
15.6403
15.6801
15.7225
15.7708
15.8318
15.9193
16.0612
16.3134
16.7857
17.6856
19.3755
22.3951
27.3097
27.3629
24.8599
22.5974
20.6271
18.9704
17.6694
16.7227
16.0869
15.698
15.4874
15.3947
15.3735
15.3923
15.4318
15.4814
15.5355
15.5916
15.6335
15.6736
15.7163
15.765
15.8265
15.9149
16.0582
16.3128
16.7889
17.6946
19.3907
22.4117
27.3118
27.3482
24.8581
22.6048
20.6399
18.986
17.6836
16.7332
16.0928
15.6995
15.4854
15.3902
15.3675
15.3854
15.4245
15.474
15.5281
15.5842
15.6267
15.6671
15.7102
15.7593
15.8213
15.9105
16.0552
16.3122
16.7922
17.7035
19.4059
22.4281
27.3139
27.3337
24.8562
22.6121
20.6525
19.0014
17.6976
16.7438
16.0988
15.7011
15.4835
15.3858
15.3615
15.3786
15.4173
15.4666
15.5207
15.5769
15.62
15.6606
15.704
15.7535
15.8161
15.9062
16.0523
16.3116
16.7954
17.7124
19.4209
22.4443
27.3157
27.3192
24.8542
22.6191
20.6648
19.0166
17.7116
16.7543
16.1048
15.7028
15.4817
15.3815
15.3557
15.3719
15.4102
15.4593
15.5134
15.5697
15.6133
15.6542
15.6979
15.7478
15.811
15.9019
16.0494
16.311
16.7987
17.7214
19.4359
22.4603
27.3174
27.3049
24.8521
22.626
20.677
19.0315
17.7255
16.7647
16.1109
15.7046
15.48
15.3773
15.3499
15.3652
15.4031
15.4521
15.5062
15.5625
15.6066
15.6478
15.6918
15.7421
15.8058
15.8976
16.0465
16.3105
16.8021
17.7303
19.4507
22.476
27.319
27.2906
24.8499
22.6327
20.6889
19.0463
17.7392
16.7752
16.1171
15.7065
15.4784
15.3732
15.3442
15.3586
15.3961
15.4449
15.499
15.5554
15.6
15.6414
15.6858
15.7365
15.8007
15.8933
16.0436
16.31
16.8054
17.7392
19.4654
22.4915
27.3204
27.2765
24.8477
22.6392
20.7006
19.0609
17.7528
16.7856
16.1233
15.7085
15.4769
15.3692
15.3386
15.3521