/*--------------------------------*- C++ -*----------------------------------*\
  =========                 |
  \\      /  F ield         | OpenFOAM: The Open Source CFD Toolbox
   \\    /   O peration     | Website:  https://openfoam.org
    \\  /    A nd           | Version:  8
     \\/     M anipulation  |
\*---------------------------------------------------------------------------*/
FoamFile
{
    version     2.0;
    format      ascii;
    class       volScalarField;
    location    "1.2";
    object      Q4;
}
// * * * * * * * * * * * * * * * * * * * * * * * * * * * * * * * * * * * * * //

dimensions      [0 0 -1 0 0 0 0];

internalField   nonuniform List<scalar> 
6300
(
0.0201455
0.0891611
0.165649
0.252133
0.35501
0.479229
0.629338
0.808852
1.02016
1.26485
1.54405
1.85864
2.20937
2.59688
3.02177
3.48454
3.9857
4.52571
5.10501
5.72405
6.38324
7.08301
7.82375
8.60585
9.43011
10.3
11.2358
12.3527
14.3047
21.8403
0.0488757
0.131488
0.215785
0.310407
0.421591
0.55524
0.71602
0.906954
1.1298
1.3856
1.6751
1.9989
2.35752
2.7514
3.18093
3.64649
4.14837
4.6869
5.26234
5.87498
6.52507
7.21282
7.93842
8.70204
9.50425
10.3485
11.256
12.345
14.2821
21.7771
0.0589269
0.142114
0.234635
0.340824
0.462806
0.605412
0.773888
0.972075
1.20243
1.46634
1.76454
2.09744
2.4653
2.86832
3.30662
3.78029
4.28942
4.83404
5.41421
6.02997
6.68138
7.36852
8.09152
8.8506
9.64657
10.4834
11.3827
12.4619
14.381
21.8687
0.0748426
0.15749
0.254156
0.367329
0.497869
0.649089
0.825317
1.03055
1.26762
1.53817
1.84294
2.18226
2.55627
2.96502
3.4085
3.88665
4.39935
4.9463
5.52623
6.13846
6.78463
7.46518
8.18017
8.9296
9.71387
10.5368
11.4213
12.489
14.4144
21.895
0.0928091
0.176088
0.274994
0.391896
0.527467
0.684291
0.866026
1.07633
1.31797
1.59257
1.90092
2.24335
2.61997
3.03081
3.47585
3.955
4.46815
5.01511
5.59266
6.20127
6.84362
7.5198
8.22982
8.9737
9.75195
10.5686
11.4472
12.5118
14.4485
21.9284
0.112216
0.19712
0.298331
0.418366
0.558163
0.720021
0.907068
1.12254
1.36896
1.64787
1.96003
2.30573
2.68509
3.09811
3.54474
4.02487
4.53837
5.08508
5.65767
6.26301
6.90145
7.57309
8.27798
9.01622
9.78845
10.599
11.4721
12.5348
14.4843
21.9615
0.133214
0.2203
0.324073
0.447106
0.590691
0.757136
0.949237
1.16983
1.42113
1.70451
2.02062
2.36975
2.75197
3.16725
3.61553
4.09667
4.61053
5.15236
5.72204
6.32401
6.95842
7.62542
8.32513
9.05774
9.82404
10.6286
11.4966
12.5582
14.5208
21.993
0.155949
0.245436
0.351925
0.47793
0.625061
0.795769
0.992673
1.21826
1.47444
1.76233
2.08249
2.43511
2.82025
3.23785
3.68781
4.16999
4.68419
5.21964
5.7865
6.38498
7.01526
7.67755
8.37203
9.09901
9.85943
10.6582
11.5212
12.5821
14.5577
22.0229
0.180556
0.272492
0.38175
0.510725
0.661274
0.83604
1.03755
1.26802
1.52904
1.82147
2.14572
2.5019
2.89
3.30996
3.76164
4.24487
4.75404
5.28726
5.85119
6.44606
7.07213
7.72963
8.41885
9.14018
9.89472
10.6877
11.546
12.6063
14.595
22.0511
0.207168
0.301519
0.413522
0.545444
0.69934
0.878035
1.08402
1.31928
1.58509
1.88208
2.21045
2.57023
2.96134
3.38369
3.83711
4.3214
4.82441
5.35525
5.91612
6.50729
7.12904
7.78169
8.46559
9.18124
9.9299
10.7171
11.5707
12.6306
14.6322
22.0775
0.235918
0.332598
0.447269
0.582089
0.739273
0.921814
1.13219
1.37216
1.64274
1.94428
2.27679
2.6402
3.03436
3.45912
3.9143
4.39609
4.89536
5.42369
5.98137
6.5687
7.18604
7.83375
8.51226
9.22218
9.9649
10.7463
11.5952
12.6549
14.6692
22.1022
0.266946
0.365833
0.483054
0.620691
0.781106
0.967436
1.18213
1.42677
1.70208
2.00817
2.34485
2.71191
3.10914
3.53634
3.99327
4.46966
4.96696
5.49262
6.04697
6.63035
7.24315
7.88582
8.55885
9.26295
9.99967
10.7752
11.6194
12.6791
14.7058
22.125
0.300397
0.401337
0.520958
0.661308
0.824888
1.01496
1.23394
1.48321
1.76324
2.07387
2.41473
2.78545
3.18576
3.6154
4.0741
4.54409
5.03925
5.56209
6.11296
6.69224
7.30039
7.93789
8.60533
9.30351
10.0341
10.8037
11.6432
12.7028
14.7421
22.1459
0.336424
0.439233
0.561077
0.704009
0.870681
1.06445
1.28768
1.54156
1.8263
2.14148
2.48651
2.86092
3.26432
3.6964
4.15327
4.61944
5.11228
5.63212
6.17935
6.7544
7.35774
7.98995
8.65167
9.34379
10.0682
10.8317
11.6664
12.7261
14.7777
22.1647
0.375191
0.479654
0.603516
0.748881
0.918556
1.11598
1.34345
1.60193
1.89136
2.21108
2.5603
2.93839
3.34489
3.77941
4.2314
4.69575
5.18608
5.70276
6.24618
6.81681
7.4152
8.04196
8.69781
9.38373
10.1017
10.8591
11.689
12.7488
14.8127
22.1814
0.416871
0.522738
0.648388
0.796016
0.968594
1.16963
1.40131
1.66439
1.95852
2.28278
2.63619
3.01797
3.42756
3.8645
4.31073
4.77306
5.2607
5.77401
6.31344
6.8795
7.47276
8.0939
8.74371
9.42326
10.1347
10.8857
11.7107
12.7709
14.8468
22.1959
0.461649
0.568635
0.695815
0.845517
1.02089
1.22549
1.46137
1.72904
2.02787
2.35668
2.71428
3.09975
3.51242
3.95177
4.39131
4.85142
5.33615
5.84591
6.38115
6.94243
7.53038
8.14572
8.7893
9.4623
10.167
10.9116
11.7316
12.7922
14.8801
22.208
0.509721
0.617501
0.745928
0.897493
1.07553
1.28364
1.5237
1.79597
2.09951
2.43287
2.79466
3.18381
3.59956
4.03915
4.47319
4.93085
5.41247
5.91846
6.44931
7.00562
7.58805
8.19738
8.83454
9.50079
10.1986
10.9365
11.7516
12.8125
14.9125
22.2175
0.561295
0.669505
0.798865
0.952064
1.13263
1.34418
1.58842
1.86528
2.17353
2.51146
2.87744
3.27027
3.68908
4.12438
4.55642
5.01141
5.48968
5.99167
6.51792
7.06903
7.64573
8.24884
8.87936
9.53863
10.2293
10.9604
11.7704
12.832
14.9437
22.2245
0.616591
0.724825
0.854773
1.00936
1.1923
1.40722
1.65561
1.93707
2.25005
2.59254
2.96272
3.35923
3.78107
4.21125
4.64104
5.09311
5.5678
6.06557
6.58697
7.13266
7.70339
8.30005
8.9237
9.57577
10.2591
10.9832
11.7881
12.8503
14.9736
22.2286
0.675845
0.78365
0.913809
1.0695
1.25466
1.47288
1.72539
2.01146
2.32917
2.67624
3.05061
3.45078
3.87564
4.29979
4.72709
5.17598
5.64684
6.14014
6.65645
7.19647
7.76099
8.35095
8.96748
9.6121
10.2879
11.0049
11.8045
12.8675
15.0023
22.2297
0.739305
0.846182
0.976141
1.13265
1.31984
1.54127
1.79788
2.08856
2.41102
2.76266
3.14123
3.54505
3.97291
4.39007
4.8146
5.26006
5.72683
6.21539
6.72636
7.26044
7.81849
8.4015
9.01064
9.64756
10.3155
11.0252
11.8196
12.8834
15.0294
22.2276
0.807236
0.912635
1.04195
1.19895
1.38798
1.61252
1.8732
2.16849
2.4957
2.85193
3.23469
3.64215
4.07297
4.48214
4.90362
5.34537
5.80776
6.29132
6.79666
7.32455
7.87585
8.45162
9.05311
9.68206
10.342
11.0441
11.8332
12.8979
15.0549
22.222
0.879921
0.983239
1.11142
1.26857
1.45923
1.68677
1.95149
2.25138
2.58335
2.94417
3.33113
3.74221
4.17596
4.57605
4.99418
5.43192
5.88966
6.36792
6.86736
7.38875
7.93302
8.50126
9.0948
9.7155
10.3671
11.0615
11.8452
12.9109
15.0786
22.2129
0.95766
1.05824
1.18476
1.34168
1.53374
1.76418
2.03288
2.33738
2.67411
3.03953
3.43067
3.84535
4.27608
4.67184
5.08632
5.51975
5.97253
6.44519
6.93841
7.45301
7.98994
8.55036
9.13565
9.74779
10.3908
11.0773
11.8555
12.9223
15.1004
22.1999
1.04077
1.13789
1.26218
1.41848
1.61168
1.84489
2.11754
2.42662
2.76813
3.13814
3.53346
3.95172
4.37713
4.76957
5.18008
5.60888
6.05637
6.52312
7.00981
7.51729
8.04657
8.59883
9.17556
9.77885
10.413
11.0913
11.8641
12.9319
15.12
22.1827
1.1296
1.22248
1.34393
1.49916
1.69325
1.92908
2.20561
2.51927
2.86555
3.24016
3.63965
4.06147
4.48052
4.86929
5.27548
5.69931
6.14118
6.60168
7.08151
7.58154
8.10283
8.64662
9.21444
9.80856
10.4336
11.1036
11.8707
12.9395
15.1374
22.1612
1.22451
1.3123
1.43024
1.58395
1.77863
2.01693
2.29728
2.6155
2.96655
3.34576
3.7494
4.17475
4.58632
4.97104
5.37255
5.79106
6.22697
6.68086
7.15348
7.64572
8.15867
8.69362
9.25221
9.83683
10.4524
11.1138
11.8753
12.9452
15.1522
22.135
1.32589
1.40767
1.52139
1.67306
1.86802
2.10864
2.39274
2.71548
3.0713
3.45511
3.86289
4.29173
4.69458
5.07488
5.47133
5.88414
6.31371
6.76064
7.22568
7.70976
8.21401
8.73978
9.28877
9.86354
10.4694
11.122
11.8776
12.9486
15.1643
22.1038
1.43416
1.50894
1.61766
1.76676
1.96167
2.20441
2.49217
2.81943
3.18
3.56839
3.98029
4.41259
4.80538
5.18084
5.57184
5.97855
6.4014
6.84098
7.29806
7.77361
8.26878
8.78498
9.32401
9.88858
10.4844
11.128
11.8777
12.9496
15.1735
22.0674
1.54977
1.61647
1.71937
1.86531
2.0598
2.30447
2.59581
2.92754
3.29286
3.68581
4.10181
4.53752
4.91878
5.28897
5.67409
6.0743
6.49002
6.92185
7.37058
7.8372
8.3229
8.82914
9.35783
9.91184
10.4972
11.1316
11.8753
12.9481
15.1795
22.0253
1.6732
1.73065
1.82683
1.969
2.16268
2.40906
2.70388
3.04004
3.41009
3.8076
4.22765
4.66673
5.03484
5.39931
5.77811
6.17139
6.57955
7.00321
7.44317
7.90045
8.37627
8.87216
9.3901
9.93318
10.5079
11.1327
11.8703
12.9438
15.182
21.9772
1.80497
1.85192
1.94042
2.07813
2.27058
2.51845
2.81663
3.15718
3.53193
3.93397
4.35806
4.80044
5.15362
5.51189
5.8839
6.26979
6.66995
7.085
7.51577
7.96328
8.42881
8.91393
9.42072
9.95248
10.5161
11.1312
11.8625
12.9366
15.1809
21.9228
1.94563
1.98073
2.06052
2.19305
2.38382
2.63292
2.93435
3.27922
3.65865
4.06519
4.49327
4.93718
5.27518
5.62674
5.99147
6.36948
6.76118
7.16717
7.5883
8.02561
8.4804
8.95432
9.44955
9.96959
10.5218
11.1269
11.8517
12.9263
15.1758
21.8616
2.0958
2.11758
2.18754
2.31413
2.50272
2.75279
3.05731
3.40645
3.79052
4.20153
4.63355
5.06831
5.39957
5.74387
6.1008
6.47044
6.85319
7.24965
7.66067
8.08732
8.53094
8.99323
9.47647
9.98439
10.5249
11.1196
11.8378
12.9126
15.1664
21.7932
2.25613
2.26301
2.32194
2.44174
2.62765
2.87837
3.18586
3.53919
3.92786
4.3433
4.77919
5.2029
5.5268
5.86328
6.21186
6.57261
6.9459
7.33235
7.73279
8.14832
8.5803
9.0305
9.50132
9.99671
10.5251
11.1093
11.8206
12.8953
15.1525
21.7173
2.42733
2.41761
2.46421
2.57633
2.75898
3.01005
3.32034
3.67779
4.071
4.49082
4.93051
5.34101
5.65692
5.98497
6.32463
6.67594
7.03925
7.41516
7.80453
8.20846
8.62835
9.06601
9.52397
10.0064
10.5223
11.0956
11.7999
12.8743
15.1336
21.6334
2.61018
2.582
2.61489
2.71836
2.89714
3.14823
3.46113
3.82261
4.22032
4.64444
5.08785
5.48269
5.78992
6.1089
6.43904
6.78033
7.13311
7.49798
7.87578
8.26762
8.67494
9.09961
9.54425
10.0133
10.5164
11.0786
11.7756
12.8492
15.1095
21.541
2.80551
2.75688
2.77456
2.86834
3.04261
3.29334
3.60868
3.97408
4.37621
4.80457
5.25159
5.62794
5.92578
6.23502
6.555
6.88568
7.22737
7.58065
7.94637
8.32564
8.71992
9.13112
9.56202
10.0173
10.5072
11.0579
11.7474
12.8198
15.0799
21.4396
3.01425
2.94302
2.94387
3.02684
3.1959
3.44588
3.76344
4.13266
4.53913
4.97164
5.42213
5.77676
6.06445
6.36324
6.6724
6.99186
7.32188
7.66303
8.01615
8.38236
8.76312
9.1604
9.57711
10.0182
10.4945
11.0334
11.7151
12.7859
15.0444
21.3289
3.23743
3.14125
3.12351
3.19448
3.35758
3.60638
3.92596
4.29888
4.70959
5.14612
5.59993
5.92912
6.20584
6.49343
6.79109
7.09868
7.41644
7.74492
8.08492
8.43757
8.80435
9.18727
9.58934
10.0159
10.4782
11.0051
11.6786
12.7472
15.0026
21.2082
3.47616
3.3525
3.31429
3.37195
3.52829
3.77547
4.09682
4.47329
4.88813
5.32854
5.78548
6.0849
6.3498
6.62541
6.91086
7.20593
7.51084
7.82609
8.15247
8.49108
8.84342
9.21153
9.59857
10.0101
10.4581
10.9726
11.6377
12.7036
14.9541
21.0772
3.73169
3.57779
3.51706
3.56002
3.70874
3.95382
4.27668
4.65656
5.07538
5.5195
5.97931
6.24394
6.49612
6.75895
7.03144
7.31335
7.60481
7.90629
8.21855
8.54267
8.88012
9.23302
9.60461
10.0008
10.4341
10.9359
11.5923
12.6547
14.8987
20.9353
4.00542
3.81828
3.7328
3.75956
3.89973
4.1422
4.46631
4.84941
5.27205
5.71964
6.18069
6.40598
6.6445
6.89371
7.15252
7.4206
7.69803
7.98522
8.28289
8.59208
8.91426
9.25155
9.60733
9.98778
10.4061
10.8949
11.5421
12.6003
14.836
20.7821
4.29892
4.07525
3.96262
3.97156
4.10219
4.34151
4.66657
5.0527
5.47892
5.92969
6.36034
6.57065
6.79455
7.02929
7.27368
7.52729
7.79013
8.06255
8.34519
8.63906
8.94559
9.26694
9.60657
9.97098
10.3741
10.8495
11.4872
12.5404
14.7656
20.617
4.61399
4.35018
4.20777
4.19712
4.31717
4.55276
4.87846
5.26736
5.69688
6.15042
6.54323
6.73743
6.94571
7.16515
7.39441
7.63294
7.88068
8.13788
8.40513
8.68334
8.97392
9.27902
9.60223
9.95031
10.3378
10.7996
11.4273
12.4746
14.6873
20.4397
4.95266
4.64476
4.46969
4.43756
4.5459
4.77715
5.10311
5.49448
5.92692
6.38269
6.72869
6.9056
7.09729
7.30061
7.51406
7.73698
7.96917
8.2108
8.46233
8.72463
8.99903
9.28766
9.59421
9.92574
10.2974
10.7453
11.3625
12.4029
14.6008
20.2498
5.31734
4.96096
4.75007
4.69439
4.78981
5.01606
5.34188
5.73532
6.17014
6.62739
6.91573
7.0742
7.24836
7.43481
7.63188
7.83872
8.05502
8.28081
8.51643
8.76265
9.02072
9.29275
9.58251
9.89731
10.253
10.6867
11.2929
12.3253
14.5058
20.0469
5.71086
5.3011
5.05091
4.96943
5.05062
5.27114
5.59633
5.99129
6.42772
6.88542
7.103
7.24195
7.39774
7.5667
7.74692
7.93738
8.13758
8.34739
8.56704
8.79713
9.03884
9.29424
9.56714
9.86513
10.2046
10.6239
11.2185
12.2418
14.4023
19.8306
6.13671
5.668
5.3746
5.26484
5.33036
5.54433
5.86823
6.26392
6.70086
7.15754
7.28869
7.40718
7.54395
7.69497
7.85808
8.03203
8.2161
8.40999
8.61374
8.82782
9.05329
9.29214
9.54824
9.82944
10.1527
10.5572
11.1398
12.1525
14.2902
19.6008
6.59899
6.06512
5.72413
5.58332
5.63159
5.83803
6.15975
6.55499
6.99082
7.40132
7.47029
7.56768
7.68505
7.81799
7.96401
8.12157
8.28973
8.46796
8.65611
8.85448
9.06397
9.28653
9.52605
9.79059
10.0976
10.4873
11.0572
12.058
14.1696
19.3572
7.10375
6.49695
6.10314
5.92801
5.95711
6.15471
6.47288
6.86582
7.29808
7.59977
7.64479
7.72085
7.81887
7.93396
8.06325
8.20489
8.35765
8.52074
8.69381
8.87698
9.07099
9.2777
9.50102
9.74919
10.0402
10.4149
10.9715
11.9588
14.041
19.1001
7.65679
6.96901
6.51663
6.30356
6.31125
6.49827
6.81081
7.19864
7.62369
7.786
7.80738
7.86267
7.94207
8.04017
8.15365
8.28028
8.41854
8.56738
8.72623
8.89499
9.07427
9.26582
9.47356
9.7059
9.98121
10.341
10.8839
11.8561
13.9052
18.8299
8.27362
7.49013
6.97008
6.71353
6.69621
6.86951
7.17268
7.55061
7.96274
7.95564
7.95453
7.99035
8.05254
8.13505
8.23409
8.34705
8.47208
8.60786
8.7536
8.90902
9.07458
9.25193
9.44497
9.66227
9.92253
10.2678
10.7966
11.752
13.764
18.5473
8.95515
8.06881
7.47416
7.16912
7.12291
7.27835
7.56678
7.92799
8.17505
8.09474
8.07488
8.09465
8.14272
8.21245
8.29957
8.40112
8.51496
8.63957
8.77395
8.91766
9.07102
9.23562
9.41533
9.61885
9.86515
10.1966
10.7114
11.6487
13.6198
18.2562
9.77269
8.7289
8.03128
7.6616
7.57532
7.70227
7.96403
8.29527
8.30786
8.20927
8.17444
8.18157
8.21855
8.27817
8.35576
8.44804
8.55265
8.66787
8.79255
8.92613
9.06884
9.22217
9.39003
9.58121
9.81491
10.1336
10.635
11.5532
13.4789
17.9569
10.6394
9.47546
8.68151
8.24412
8.10991
8.19748
8.41896
8.55351
8.35072
8.24976
8.2126
8.21732
8.25163
8.30819
8.38222
8.47039
8.5703
8.6802
8.79888
8.92573
9.06094
9.20599
9.36481
9.54628
9.76977
10.0778
10.567
11.4664
13.3458
17.6718
12.0375
10.3807
9.33363
8.75515
8.52656
8.53337
8.66898
8.60977
8.41578
8.3173
8.2807
8.28474
8.31736
8.3713
8.44188
8.52582
8.62075
8.72492
8.83712
8.95673
9.0839
9.22015
9.36952
9.54108
9.75447
10.0523
10.53
11.4099
13.2361
17.3762
13.0416
11.4535
10.3115
9.59493
9.22515
9.04542
8.68282
8.40082
8.25835
8.20121
8.1957
8.22338
8.27413
8.34204
8.42336
8.51549
8.61654
8.72507
8.84012
8.96122
9.08863
9.22394
9.37122
9.53955
9.74848
10.0403
10.509
11.3727
13.1609
17.1978
17.0917
12.4052
10.3447
9.31096
8.78783
8.5625
8.48674
8.45033
8.41756
8.40438
8.41467
8.44467
8.49061
8.54966
8.61966
8.69886
8.78583
8.87939
8.97871
9.0834
9.19381
9.31162
9.44105
9.59146
9.78264
10.0566
10.5046
11.334
13.0388
16.8323
20.6778
13.8648
10.8956
9.58212
8.97979
8.6923
8.51106
8.37779
8.30335
8.27717
8.28444
8.3153
8.36391
8.42664
8.501
8.58512
8.6775
8.77703
8.88294
8.99496
9.11363
9.24088
9.38129
9.5447
9.75153
10.0445
10.5149
11.3664
13.0746
16.792
17.9951
14.1669
11.6831
10.1644
9.3161
8.89264
8.72744
8.71059
8.76983
8.85263
8.9123
8.93831
8.95841
8.98742
9.02837
9.08081
9.14349
9.21505
9.2944
9.38085
9.47452
9.57685
9.69191
9.82887
10.0073
10.2685
10.7019
11.5076
13.1603
16.8014
18.6685
15.0507
12.52
10.9101
9.95648
9.43994
9.20098
9.12649
9.12518
9.08432
9.03623
9.01435
9.01537
9.0349
9.06971
9.1173
9.17566
9.24319
9.31864
9.40128
9.49116
9.58968
9.7008
9.83356
10.0073
10.2633
10.6904
11.4886
13.1282
16.7169
18.1817
15.0919
12.7934
11.2294
10.2421
9.66849
9.3743
9.25701
9.24446
9.2889
9.30938
9.27784
9.26737
9.27525
9.29823
9.33383
9.38008
9.43535
9.49839
9.56841
9.64537
9.73058
9.82787
9.94615
10.1047
10.3446
10.7553
11.5372
13.1608
16.7145
18.0745
15.2455
13.069
11.5373
10.5353
9.9284
9.59717
9.44555
9.40321
9.4232
9.41929
9.38741
9.37745
9.38445
9.40525
9.43757
9.47961
9.52989
9.58726
9.65098
9.72103
9.79873
9.88788
9.99739
10.1466
10.3768
10.7781
11.5524
13.1708
16.7006
17.9202
15.2759
13.2066
11.717
10.7189
10.0971
9.74368
9.56889
9.50492
9.50557
9.52069
9.49176
9.48283
9.48921
9.508
9.53718
9.57514
9.62051
9.67224
9.72964
9.79273
9.86283
9.94378
10.0445
10.1846
10.4058
10.7991
11.5683
13.1854
16.7003
17.8206
15.3013
13.3079
11.8514
10.8601
10.2309
9.86356
9.67279
9.59296
9.57859
9.58469
9.5604
9.55412
9.56142
9.57971
9.60721
9.64249
9.68433
9.73178
9.78421
9.84172
9.90566
9.97996
10.0737
10.2066
10.4212
10.8094
11.5745
13.1911
16.7005
17.7375
15.3101
13.3742
11.9442
10.9603
10.328
9.95208
9.75051
9.65935
9.63381
9.63203
9.61253
9.60917
9.61778
9.63603
9.66235
9.69547
9.73435
9.7781
9.82621
9.87883
9.93741
10.006
10.0938
10.2209
10.4304
10.8113
11.5578
13.1924
16.7033
17.6727
15.3158
13.4236
12.0136
11.0356
10.4015
10.0199
9.81073
9.71137
9.67748
9.66424
9.64946
9.64921
9.65948
9.67812
9.70375
9.73528
9.77177
9.81247
9.85695
9.90546
9.95954
10.0233
10.1064
10.229
10.435
10.7907
11.549
13.199
16.707
17.6195
15.3193
13.4615
12.0667
11.0927
10.457
10.0711
9.85647
9.75109
9.71098
9.68632
9.67592
9.67871
9.69076
9.71005
9.73534
9.76568
9.80025
9.83842
9.87985
9.92489
9.9752
10.0351
10.1142
10.2335
10.4145
10.7761
11.5453
13.2089
16.7114
17.5755
15.3224
13.4926
12.1093
11.1375
10.4999
10.1103
9.89134
9.78141
9.72754
9.70071
9.69424
9.69991
9.71377
9.73387
9.7591
9.7886
9.82168
9.85779
9.89671
9.93889
9.98609
10.0428
10.1189
10.2193
10.3981
10.766
11.5453
13.221
16.7163
17.5382
15.3256
13.5191
12.1447
11.1736
10.5335
10.1405
9.91637
9.79156
9.73237
9.70955
9.70652
9.71482
9.73044
9.75146
9.77681
9.80577
9.83771
9.87218
9.90906
9.9489
9.99358
10.0477
10.1098
10.203
10.3853
10.7591
11.5478
13.2344
16.7214
17.5061
15.329
13.5426
12.1751
11.2037
10.5604
10.1478
9.91243
9.78996
9.73386
9.71429
9.71421
9.72487
9.74214
9.76411
9.78975
9.81839
9.84949
9.88268
9.91794
9.95589
9.99856
10.0419
10.0948
10.1898
10.3753
10.7546
11.5522
13.2488
16.7268
17.478
15.3327
13.564
12.202
11.2293
10.5589
10.1439
9.90822
9.78696
9.73305
9.71605
9.71843
9.73116
9.74997
9.77288
9.7989
9.8274
9.85791
9.89013
9.92411
9.96059
9.99441
10.0285
10.0822
10.1789
10.3674
10.752
11.5579
13.2638
16.7323
17.4531
15.3366
13.5837
12.2264
11.2361
10.5592
10.1411
9.90407
9.78313
9.73066
9.71562
9.72004
9.73456
9.75475
9.77857
9.80503
9.83353
9.86365
9.89516
9.92816
9.95716
9.98283
10.0171
10.0715
10.1698
10.3613
10.7508
11.5646
13.2793
16.738
17.4307
15.3406
13.6023
12.2489
11.2429
10.5613
10.1393
9.9002
9.77886
9.72718
9.71359
9.71966
9.73571
9.75713
9.78181
9.80874
9.83734
9.86723
9.89823
9.92532
9.94733
9.97276
10.0072
10.0624
10.1622
10.3564
10.7507
11.5722
13.295
16.7439
17.4103
15.3447
13.6197
12.2694
11.2513
10.5647
10.1385
9.8967
9.77439
9.72298
9.71041
9.71778
9.73513
9.75763
9.78311
9.81052
9.83929
9.86908
9.8966
9.91706
9.93863
9.96393
9.99866
10.0546
10.1558
10.3526
10.7515
11.5805
13.311
16.7498
17.3916
15.3488
13.6364
12.2825
11.2611
10.5694
10.1385
9.89363
9.76988
9.71833
9.7064
9.71479
9.7332
9.75665
9.78286
9.81074
9.83973
9.86951
9.88966
9.90958
9.93084
9.95609
9.9911
10.0478
10.1504
10.3498
10.7531
11.5893
13.3272
16.7558
17.3741
15.3528
13.6523
12.2963
11.272
10.5751
10.1393
9.891
9.76545
9.71339
9.7018
9.71094
9.73024
9.75451
9.78137
9.80971
9.83895
9.86404
9.8832
9.90273
9.92378
9.94905
9.98437
10.0418
10.1458
10.3476
10.7553
11.5986
13.3435
16.7618
17.3577
15.3568
13.6675
12.3108
11.2837
10.5816
10.1407
9.88881
9.76117
9.70831
9.69679
9.70648
9.72649
9.75146
9.77891
9.80768
9.83719
9.85835
9.87712
9.89638
9.9173
9.94265
9.97832
10.0364
10.1418
10.346
10.7581
11.6083
13.3598
16.7679
17.3422
15.3606
13.6821
12.3257
11.296
10.5887
10.1428
9.88703
9.75706
9.70317
9.6915
9.70155
9.72213
9.7477
9.77567
9.80485
9.83456
9.85284
9.87134
9.89043
9.91131
9.93678
9.97281
10.0316
10.1383
10.3449
10.7612
11.6183
13.3762
16.7739
17.3275
15.3642
13.6961
12.3409
11.3088
10.5965
10.1454
9.88564
9.75316
9.69803
9.68604
9.69629
9.71732
9.74339
9.77183
9.80138
9.8294
9.84746
9.8658
9.8848
9.90569
9.93133
9.96775
10.0273
10.1353
10.3443
10.7648
11.6285
13.3926
16.78
17.3133
15.3677
13.7097
12.3562
11.322
10.6047
10.1485
9.88462
9.74947
9.69295
9.68048
9.6908
9.71216
9.73866
9.76751
9.79741
9.82426
9.84219
9.86044
9.87942
9.90038
9.92623
9.96305
10.0233
10.1326
10.344
10.7687
11.639
13.4089
16.7859
17.2997
15.371
13.7227
12.3716
11.3354
10.6134
10.1519
9.88394
9.74601
9.68796
9.67488
9.68515
9.70676
9.73361
9.76281
9.79304
9.81912
9.837
9.85523
9.87424
9.89532
9.9214
9.95865
10.0197
10.1303
10.3439
10.7728
11.6496
13.4252
16.7918
17.2865
15.3741
13.7353
12.387
11.349
10.6223
10.1558
9.88357
9.74276
9.68307
9.66927
9.6794
9.70117
9.72831
9.75783
9.78835
9.81398
9.83188
9.85014
9.86923
9.89046
9.9168
9.95449
10.0163
10.1282
10.3442
10.7772
11.6604
13.4413
16.7976
17.2737
15.377
13.7475
12.4023
11.3626
10.6315
10.1599
9.88349
9.73973
9.6783
9.66369
9.6736
9.69546
9.72284
9.75264
9.78342
9.80885
9.8268
9.84514
9.86435
9.88576
9.91239
9.95053
10.0131
10.1263
10.3446
10.7817
11.6712
13.4574
16.8033
17.2612
15.3797
13.7592
12.4174
11.3764
10.6409
10.1644
9.88367
9.7369
9.67367
9.65816
9.66777
9.68967
9.71723
9.74728
9.77831
9.80371
9.82176
9.84022
9.85958
9.8812
9.90813
9.94674
10.01
10.1245
10.3452
10.7865
11.6822
13.4733
16.8088
17.2489
15.3822
13.7706
12.4324
11.3901
10.6505
10.1691
9.88411
9.73427
9.66916
9.6527
9.66195
9.68384
9.71155
9.7418
9.77305
9.79858
9.81676
9.83536
9.85489
9.87674
9.90399
9.94308
10.0071
10.1229
10.346
10.7913
11.6932
13.4891
16.8142
17.2369
15.3846
13.7815
12.4472
11.4038
10.6602
10.174
9.88477
9.73184
9.66479
9.64731
9.65616
9.67798
9.7058
9.73624
9.7677
9.79345
9.81178
9.83056
9.85028
9.87237
9.89996
9.93954
10.0044
10.1215
10.3469
10.7963
11.7042
13.5047
16.8195
17.2252
15.3867
13.7922
12.4618
11.4175
10.67
10.1791
9.88565
9.72959
9.66056
9.64201
9.6504
9.67212
9.70003
9.73063
9.76227
9.78833
9.80684
9.8258
9.84573
9.86808
9.89601
9.93608
10.0017
10.1202
10.3479
10.8014
11.7152
13.5201
16.8246
17.2136
15.3886
13.8025
12.4762
11.431
10.6799
10.1844
9.88672
9.72752
9.65647
9.63681
9.6447
9.66629
9.69425
9.72498
9.7568
9.78322
9.80192
9.82108
9.84124
9.86386
9.89214
9.93271
9.9991
10.1189
10.349
10.8065
11.7263
13.5354
16.8296
17.2022
15.3904
13.8124
12.4903
11.4445
10.6899
10.1898
9.88798
9.72561
9.65251
9.6317
9.63906
9.66048
9.68847
9.71932
9.7513
9.77812
9.79702
9.81639
9.83679
9.85968
9.88832
9.9294
9.99658
10.1177
10.3502
10.8117
11.7373
13.5505
16.8344
17.1909
15.392
13.8221
12.5041
11.4579
10.6999
10.1953
9.88941
9.72387
9.64868
9.62668
9.63348
9.65471
9.68271
9.71366
9.74578
9.77305
9.79215
9.81174
9.83238
9.85556
9.88456
9.92615
9.99413
10.1166
10.3514
10.817
11.7483
13.5653
16.8391
17.1798
15.3934
13.8314
12.5177
11.4711
10.7099
10.201
9.891
9.72229
9.64499
9.62177
9.62797
9.64899
9.67697
9.70802
9.74027
9.76799
9.78731
9.80712
9.828
9.85147
9.88084
9.92295
9.99172
10.1156
10.3527
10.8224
11.7593
13.58
16.8436
17.1688
15.3947
13.8405
12.5311
11.4842
10.72
10.2068
9.89274
9.72085
9.64142
9.61696
9.62254
9.64332
9.67127
9.7024
9.73477
9.76295
9.78249
9.80252
9.82366
9.84742
9.87715
9.91978
9.98936
10.1146
10.3541
10.8277
11.7702
13.5945
16.8479
17.1579
15.3957
13.8493
12.5442
11.4972
10.73
10.2127
9.89462
9.71956
9.63797
9.61224
9.61718
9.63771
9.66562
9.6968
9.72928
9.75794
9.77769
9.79796
9.81934
9.8434
9.87351
9.91666
9.98705
10.1136
10.3555
10.8331
11.7811
13.6088
16.8521
17.1471
15.3967
13.8578
12.557
11.51
10.74
10.2187
9.89663
9.71841
9.63465
9.60763
9.6119
9.63215
9.66
9.69124
9.72383
9.75295
9.77292
9.79342
9.81506
9.83941
9.86989
9.91356
9.98476
10.1127
10.357
10.8386
11.792
13.6229
16.8562
17.1365
15.3975
13.8661
12.5696
11.5227
10.75
10.2248
9.89876
9.71738
9.63145
9.60311
9.6067
9.62666
9.65444
9.68571
9.7184
9.74799
9.76818
9.78891
9.8108
9.83544
9.8663
9.91049
9.98251
10.1118
10.3585
10.844
11.8028
13.6368
16.86
17.1259
15.3982
13.8741
12.5819
11.5352
10.76
10.2309
9.90101
9.71649
9.62836
9.59869
9.60157
9.62123
9.64892
9.68023
9.713
9.74305
9.76346
9.78442
9.80656
9.8315
9.86273
9.90745
9.98028
10.1109
10.36
10.8495
11.8135
13.6505
16.8637
17.1155
15.3987
13.8819
12.594
11.5476
10.7699
10.2371
9.90338
9.71572
9.62539
9.59436
9.59653
9.61586
9.64346
9.67479
9.70764
9.73815
9.75877
9.77996
9.80235
9.82758
9.85918
9.90443
9.97808
10.1101
10.3616
10.855
11.8242
13.664
16.8673
17.1051
15.3991
13.8895
12.6059
11.5598
10.7798
10.2433
9.90585
9.71507
9.62253
9.59013
9.59155
9.61055
9.63805
9.66939
9.70232
9.73327
9.7541
9.77552
9.79817
9.82369
9.85566
9.90143
9.9759
10.1093
10.3632
10.8605
11.8348
13.6773
16.8707
17.0948
15.3994
13.8968
12.6175
11.5719
10.7897
10.2496
9.90841
9.71453
9.61977
9.58599
9.58666
9.60531
9.63269
9.66405
9.69704
9.72842
9.74947
9.77111
9.794
9.81981
9.85216
9.89845
9.97375
10.1086
10.3649
10.8661
11.8454
13.6904
16.874
17.0846
15.3995
13.904
12.6289
11.5838
10.7995
10.2559
9.91108
9.7141
9.61712
9.58194
9.58184
9.60013
9.62739
9.65874
9.69181
9.7236
9.74486
9.76672
9.78986
9.81596
9.84867
9.89549
9.97162
10.1078
10.3665
10.8716
11.8559
13.7033
16.8772
17.0745
15.3996
13.9109
12.6401
11.5955
10.8092
10.2623
9.91383
9.71378
9.61457
9.57798
9.5771
9.59501
9.62214
9.65349
9.68661
9.71882
9.74027
9.76236
9.78574
9.81212
9.8452
9.89255
9.9695
10.1071
10.3682
10.8772
11.8663
13.716
16.8801
17.0645
15.3995
13.9177
12.651
11.6071
10.8189
10.2687
9.91666
9.71356
9.61212
9.57411
9.57243
9.58996
9.61695
9.64828
9.68146
9.71406
9.73572
9.75802
9.78164
9.80831
9.84176
9.88963
9.96741
10.1064
10.3699
10.8827
11.8767
13.7285
16.883
17.0545
15.3994
13.9242
12.6618
11.6186
10.8286
10.2751
9.91958
9.71344
9.60977
9.57032
9.56783
9.58497
9.6118
9.64312
9.67635
9.70933
9.73119
9.7537
9.77756
9.80451
9.83832
9.88672
9.96533
10.1058
10.3717
10.8883
11.887
13.7408
16.8857
17.0447
15.3991
13.9306
12.6723
11.6299
10.8382
10.2816
9.92257
9.71342
9.60752
9.56662
9.5633
9.58003
9.60671
9.63801
9.67128
9.70464
9.72669
9.74941
9.7735
9.80073
9.83491
9.88383
9.96327
10.1051
10.3734
10.8938
11.8972
13.753
16.8883
17.0349
15.3988
13.9368
12.6826
11.641
10.8477
10.288
9.92563
9.71349
9.60536
9.563
9.55885
9.57516
9.60168
9.63294
9.66625
9.69997
9.72221
9.74514
9.76946
9.79697
9.83151
9.88095
9.96123
10.1045
10.3752
10.8994
11.9074
13.765
16.8908
17.0251
15.3984
13.9428
12.6927
11.6521
10.8571
10.2945
9.92877
9.71366
9.60329
9.55946
9.55446
9.57035
9.59669
9.62792
9.66127
9.69534
9.71776
9.74089
9.76544
9.79322
9.82812
9.87809
9.95921
10.1039
10.377
10.9049
11.9174
13.7768
16.8931
17.0155
15.3978
13.9487
12.7021
11.6629
10.8665
10.301
9.93196
9.71391
9.6013
9.55601
9.55014
9.5656
9.59176
9.62295
9.65633
9.69056
9.71334
9.73667
9.76144
9.7895
9.82476
9.87525
9.95721
10.1033
10.3788
10.9105
11.9275
13.7884
16.8953
17.0059
15.3972
13.9544
12.7112
11.6736
10.8759
10.3075
9.93523
9.71425
9.59941
9.55263
9.54589
9.5609
9.58687
9.61802
9.65142
9.68573
9.70894
9.73247
9.75747
9.78579
9.8214
9.87242
9.95522
10.1027
10.3807
10.9161
11.9374
13.7998
16.8975
16.9964
15.3966
13.9599
12.7201
11.6842
10.8851
10.314
9.93855
9.71467
9.5976
9.54932
9.54171
9.55626
9.58204
9.61313
9.64656
9.68093
9.70457
9.72829
9.75351
9.7821
9.81807
9.86961
9.95325
10.1022
10.3826
10.9216
11.9473
13.8111
16.8994
16.9869
15.3958
13.9653
12.7289
11.6946
10.8943
10.3206
9.94192
9.71516
9.59588
9.5461
9.53759
9.55167
9.57725
9.60829
9.64174
9.67618
9.70023
9.72413
9.74957
9.77842
9.81475
9.86682
9.9513
10.1017
10.3845
10.9272
11.9571
13.8222
16.9013
16.9775
15.395
13.9706
12.7375
11.7049
10.9035
10.3271
9.94536
9.71574
9.59423
9.54295
9.53353
9.54714
9.57251
9.60349
9.63696
9.67146
9.69591
9.72
9.74565
9.77477
9.81144
9.86404
9.94937
10.1012
10.3864
10.9327
11.9668
13.8332
16.9031
16.9682
15.3941
13.9757
12.7459
11.7151
10.9125
10.3336
9.94884
9.71639
9.59267
9.53987
9.52954
9.54267
9.56782
9.59873
9.63222
9.66677
9.69162
9.71589
9.74175
9.77113
9.80816
9.86127
9.94745
10.1007
10.3883
10.9383
11.9765
13.8439
16.9047
16.959
15.3932
13.9807
12.7543
11.7251
10.9215
10.3402
9.95237
9.71712
9.59118
9.53686
9.52561
9.53824
9.56318
9.59402
9.62751
9.66212
9.68735
9.7118
9.73787
9.7675
9.80488
9.85852
9.94556
10.1003
10.3902
10.9438
11.9861
13.8546
16.9063
16.9498
15.3921
13.9856
12.7624
11.735
10.9304
10.3467
9.95595
9.71792
9.58977
9.53392
9.52174
9.53387
9.55858
9.58934
9.62285
9.65751
9.68311
9.70774
9.73401
9.7639
9.80163
9.85579
9.94368
10.0998
10.3922
10.9494
11.9956
13.865
16.9077
16.9407
15.3911
13.9903
12.7705
11.7448
10.9393
10.3532
9.95958
9.71878
9.58844
9.53106
9.51793
9.52956
9.55402
9.58471
9.61822
9.65293
9.67889
9.70369
9.73017
9.76031
9.79839
9.85307
9.94182
10.0994
10.3942
10.9549
12.005
13.8754
16.9091
16.9316
15.3899
13.9949
12.7784
11.7545
10.9481
10.3597
9.96324
9.71972
9.58717
9.52826
9.51418
9.52529
9.54951
9.58012
9.61362
9.64838
9.67469
9.69967
9.72634
9.75674
9.79516
9.85037
9.93998
10.099
10.3962
10.9604
12.0144
13.8855
16.9103
16.9226
15.3887
13.9994
12.7862
11.764
10.9568
10.3662
9.96695
9.72072
9.58599
9.52553
9.51049
9.52107
9.54505
9.57556
9.60907
9.64386
9.67052
9.69566
9.72254
9.75318
9.79195
9.84769
9.93815
10.0987
10.3982
10.966
12.0237
13.8955
16.9115
16.9136
15.3875
14.0037
12.7938
11.7734
10.9655
10.3727
9.97069
9.72178
9.58487
9.52286
9.50686
9.5169
9.54062
9.57104
9.60454
9.63938
9.66637
9.69168
9.71875
9.74964
9.78876
9.84502
9.93635
10.0983
10.4003
10.9715
12.033
13.9054
16.9125
16.9048
15.3862
14.008
12.8013
11.7826
10.974
10.3792
9.97447
9.7229
9.58382
9.52026
9.50328
9.51278
9.53624
9.56657
9.60006
9.63494
9.66225
9.68772
9.71498
9.74612
9.78558
9.84237
9.93456
10.098
10.4024
10.977
12.0421
13.9151
16.9135
16.8959
15.3849
14.0121
12.8087
11.7918
10.9825
10.3857
9.97828
9.72409
9.58283
9.51773
9.49976
9.50871
9.5319
9.56212
9.5956
9.63052
9.65815
9.68378
9.71123
9.74262
9.78242
9.83973
9.93279
10.0977
10.4044
10.9825
12.0512
13.9247
16.9144
16.8872
15.3835
14.0162
12.816
11.8008
10.991
10.3922