/*--------------------------------*- C++ -*----------------------------------*\
  =========                 |
  \\      /  F ield         | OpenFOAM: The Open Source CFD Toolbox
   \\    /   O peration     | Website:  https://openfoam.org
    \\  /    A nd           | Version:  8
     \\/     M anipulation  |
\*---------------------------------------------------------------------------*/
FoamFile
{
    version     2.0;
    format      ascii;
    class       volScalarField;
    location    "1.2";
    object      tb2;
}
// * * * * * * * * * * * * * * * * * * * * * * * * * * * * * * * * * * * * * //

dimensions      [0 0 0 0 0 0 0];

internalField   nonuniform List<scalar> 
6300
(
1118.83
543.172
371.827
296.498
252.15
221.68
198.678
180.351
165.311
152.746
142.109
133.002
125.126
118.253
112.205
106.842
102.055
97.7552
93.8702
90.3419
87.1221
84.171
81.4554
78.9469
76.621
74.4499
72.3761
70.1793
66.8858
58.3826
766.748
434.131
328.25
272.565
236.802
210.911
190.703
174.244
160.53
148.944
139.052
130.524
123.107
116.603
110.855
105.74
101.158
97.0307
93.2914
89.887
86.7733
83.9131
81.2756
78.8338
76.5643
74.4393
72.3993
70.2234
66.9292
58.4561
616.1
401.948
313.519
263.31
230.154
205.861
186.758
171.105
157.991
146.86
137.318
129.065
121.868
115.542
109.941
104.948
100.471
96.4325
92.7705
89.4338
86.3797
83.5724
80.9817
78.5821
76.3498
74.2578
72.2476
70.0994
66.8235
58.4447
516.176
370.966
298.471
254.076
223.628
200.897
182.845
167.959
155.428
144.749
135.565
127.598
120.631
114.494
109.049
104.187
99.82
95.8758
92.2977
89.0366
86.0483
83.2981
80.7573
78.4017
76.209
74.1529
72.174
70.0467
66.7607
58.4652
450.474
344.598
284.585
245.501
217.691
196.467
179.386
165.184
153.168
142.891
134.027
126.318
119.563
113.598
108.296
103.553
99.2851
95.4244
91.9205
88.7236
85.7895
83.0859
80.5855
78.2649
76.1026
74.0727
72.1151
69.9984
66.697
58.4837
403.449
322.321
271.879
237.364
212.001
192.221
176.073
162.523
150.99
141.091
132.529
125.066
118.513
112.715
107.551
102.924
98.7545
94.9769
91.5513
88.4169
85.5366
82.8793
80.4189
78.1329
76.0006
73.996
72.0581
69.9496
66.6322
58.5043
367.472
303.263
260.295
229.668
206.53
188.12
172.872
159.949
148.881
139.342
131.068
123.84
117.48
111.844
106.815
102.301
98.2273
94.541
91.1875
88.1146
85.2872
82.6757
80.2548
78.003
75.9
73.9201
72.0012
69.8994
66.5666
58.5266
338.69
286.729
249.738
222.425
201.288
184.158
169.769
157.453
146.832
137.638
129.641
122.639
116.466
110.985
106.087
101.684
97.704
94.1103
90.8274
87.8151
85.04
82.4737
80.0919
77.874
75.8
73.8447
71.944
69.8484
66.5014
58.5506
314.955
272.202
240.087
215.622
196.277
180.333
166.76
155.024
144.835
135.975
128.245
121.461
115.468
110.138
105.367
101.072
97.1968
93.6839
90.4703
87.5179
84.7945
82.2729
79.9301
77.7458
75.7007
73.7697
71.887
69.797
66.4366
58.5762
294.943
259.293
231.225
209.23
191.494
176.644
163.839
152.66
142.887
134.349
126.876
120.303
114.485
109.301
104.655
100.465
96.6946
93.2611
90.116
87.2227
84.5505
82.0735
79.7692
77.6183
75.6021
73.695
71.8302
69.7455
66.3728
58.6035
277.772
247.713
223.047
203.214
186.927
173.086
161.004
150.355
140.982
132.755
125.532
119.163
113.515
108.474
103.949
99.8714
96.197
92.8418
89.7642
86.9294
84.3079
81.875
79.6092
77.4916
75.5041
73.6212
71.7739
69.6941
66.31
58.6325
262.828
237.239
215.467
197.54
182.565
169.655
158.251
148.107
139.118
131.193
124.21
118.04
112.557
107.656
103.249
99.2886
95.7037
92.4256
89.4147
86.6377
84.0666
81.6776
79.45
77.3657
75.4071
73.5482
71.7184
69.6432
66.2484
58.663
249.662
227.701
208.409
192.176
178.393
166.344
155.577
145.913
137.294
129.659
122.911
116.933
111.611
106.845
102.554
98.711
95.2143
92.0123
89.0673
86.3477
83.8267
81.4814
79.2918
77.241
75.311
73.4762
71.6637
69.5929
66.1882
58.6953
237.942
218.96
201.814
187.094
174.398
163.148
152.978
143.77
135.506
128.152
121.631
115.84
110.675
106.042
101.874
98.1384
94.7285
91.6016
88.722
86.0593
83.588
81.2862
79.1348
77.1172
75.2161
73.4053
71.6101
69.5433
66.1295
58.7294
227.414
210.906
195.63
182.268
170.568
160.059
150.452
141.678
133.754
126.671
120.37
114.761
109.749
105.247
101.207
97.5704
94.2461
91.1935
88.3785
85.7723
83.3505
81.0921
78.9788
76.9946
75.1224
73.3357
71.5577
69.4947
66.0723
58.7653
217.88
203.451
189.812
177.676
166.891
157.072
147.994
139.633
132.035
125.214
119.127
113.696
108.833
104.457
100.546
97.0068
93.767
90.7878
88.0369
85.4869
83.1144
80.8994
78.8242
76.8732
75.0302
73.2678
71.5066
69.4471
66.0168
58.8031
209.187
196.519
184.325
173.298
163.356
154.18
145.601
137.633
130.348
123.78
117.901
112.642
107.925
103.674
99.8902
96.4473
93.2909
90.3844
87.6971
85.2029
82.8796
80.7077
78.6707
76.7534
74.9394
73.2013
71.4571
69.4008
65.9631
58.8429
201.21
190.048
179.134
169.116
159.953
151.379
143.271
135.677
128.693
122.369
116.691
111.601
107.026
102.903
99.2398
95.8916
92.8176
89.9831
87.359
84.9204
82.646
80.5175
78.5188
76.6351
74.8505
73.1367
71.4091
69.3557
65.9114
58.8849
193.85
183.988
174.214
165.116
156.673
148.663
141
133.762
127.067
120.98
115.497
110.571
106.135
102.15
98.5943
95.3397
92.3471
89.584
87.0225
84.6393
82.4139
80.3287
78.3683
76.5184
74.7632
73.0739
71.3629
69.312
65.8617
58.9292
187.026
178.293
169.54
161.282
153.509
146.027
138.785
131.888
125.47
119.611
114.318
109.551
105.252
101.403
97.9538
94.7913
91.8793
89.1868
86.6878
84.3596
82.1831
80.1413
78.2193
76.4035
74.678
73.0132
71.3186
69.27
65.8142
58.9757
180.67
172.925
165.09
157.603
150.452
143.467
136.624
130.051
123.9
118.261
113.153
108.542
104.376
100.663
97.3177
94.2463
91.414
88.7917
86.3547
84.0815
81.9537
79.9553
78.0721
76.2904
74.5948
72.9546
71.2762
69.2297
65.769
59.0249
174.728
167.853
160.845
154.067
147.495
140.978
134.514
128.251
122.356
116.931
112.002
107.543
103.507
99.9282
96.6861
93.7045
90.9511
88.3985
86.0231
83.8048
81.7258
79.771
77.9266
76.1795
74.5139
72.8983
71.236
69.1913
65.7264
59.0767
169.152
163.049
156.79
150.664
144.634
138.556
132.452
126.486
120.838
115.619
110.864
106.554
102.645
99.1995
96.0588
93.1659
90.4907
88.0072
85.6933
83.5297
81.4997
79.5885
77.783
76.0707
74.4352
72.8445
71.198
69.1549
65.6863
59.1313
163.903
158.488
152.909
147.386
141.861
136.198
130.436
124.754
119.344
114.325
109.739
105.573
101.789
98.4763
95.4355
92.6304
90.0326
87.6178
85.3651
83.2562
81.275
79.4078
77.6415
75.9641
74.3592
72.7931
71.1625
69.1207
65.6492
59.189
158.948
154.148
149.189
144.223
139.171
133.901
128.464
123.054
117.873
113.048
108.627
104.602
100.955
97.7586
94.8162
92.0978
89.5767
87.2303
85.0386
82.9841
81.0521
79.2289
77.5023
75.8598
74.2856
72.7446
71.1296
69.0888
65.615
59.2499
154.259
150.012
145.618
141.169
136.559
131.66
126.533
121.384
116.424
111.787
107.526
103.638
100.132
97.046
94.2008
91.5681
89.1232
86.8446
84.7137
82.714
80.8311
79.052
77.3651
75.7582
74.2149
72.6989
71.0993
69.0596
65.584
59.3142
149.809
146.061
142.186
138.215
134.022
129.474
124.642
119.744
114.997
110.541
106.436
102.683
99.3156
96.3386
93.5891
91.0412
88.6719
86.4609
84.3906
82.4455
80.6118
78.8772
77.2304
75.6593
74.1471
72.6562
71.0721
69.0331
65.5566
59.3822
145.579
142.283
138.883
135.357
131.554
127.339
122.789
118.131
113.59
109.311
105.357
101.736
98.506
95.636
92.9811
90.5172
88.2228
86.079
84.0693
82.1788
80.3945
78.7046
77.0981
75.5632
74.0826
72.6168
71.0479
69.0096
65.5328
59.454
141.548
138.664
135.7
132.588
129.152
125.252
120.972
116.546
112.202
108.094
104.289
100.796
97.7028
94.9382
92.3766
89.9959
87.7759
85.6991
83.7498
81.9141
80.1794
78.5344
76.9686
75.4701
74.0212
72.5807
71.027
68.9893
65.513
59.53
137.701
135.191
132.63
129.903
126.812
123.212
119.19
114.985
110.834
106.892
103.23
99.8628
96.9059
94.2451
91.7758
89.4773
87.3313
85.3212
83.4322
81.6513
79.9664
78.3668
76.8419
75.3802
73.9633
72.5483
71.0096
68.9724
65.4973
59.6105
134.023
131.855
129.664
127.297
124.531
121.215
117.44
113.449
109.483
105.703
102.181
98.9367
96.1151
93.5567
91.1784
88.9615
86.889
84.9453
83.1166
81.3906
79.7557
78.2016
76.7182
75.2936
73.9091
72.5198
70.996
68.9593
65.4862
59.6956
130.5
128.645
126.797
124.764
122.305
119.259
115.72
111.936
108.15
104.526
101.142
98.0172
95.3303
92.8727
90.5844
88.4485
86.449
84.5716
82.8032
81.1321
79.5475
78.0393
76.5978
75.2107
73.8588
72.4951
70.9863
68.9502
65.4799
59.7859
127.122
125.554
124.021
122.302
120.132
117.344
114.031
110.445
106.833
103.362
100.111
97.1039
94.5514
92.1932
89.994
87.9383
86.0114
84.2001
82.4919
80.8761
79.342
77.8801
76.4806
75.1316
73.8126
72.475
70.9809
68.9454
65.4788
59.8815
123.877
122.573
121.333
119.906
118.008
115.465
112.369
108.975
105.532
102.209
99.0882
96.2003
93.7783
91.5182
89.4071
87.431
85.5764
83.8309
82.183
80.6224
79.1393
77.7239
76.3671
75.0564
73.7708
72.4592
70.9801
68.9453
65.4831
59.9828
120.756
119.695
118.726
117.572
115.932
113.622
110.735
107.525
104.246
101.067
98.0737
95.3249
93.011
90.8476
88.8237
86.9266
85.144
83.4643
81.8768
80.3716
78.9394
77.5713
76.2574
74.9855
73.7335
72.4482
70.984
68.95
65.4934
60.0903
117.75
116.913
116.195
115.298
113.901
111.813
109.126
106.095
102.974
99.9353
97.0668
94.4569
92.2494
90.1816
88.2441
86.4254
84.7143
83.1002
81.5731
80.1238
78.7429
77.4221
76.1517
74.9191
73.7012
72.4424
70.993
68.96
65.5099
60.2044
114.853
114.222
113.737
113.079
111.912
110.036
107.541
104.682
101.715
98.814
96.0672
93.5963
91.4935
89.5202
87.6682
85.9275
84.2877
82.7393
81.2726
79.8789
78.5499
77.2769
76.0503
74.8576
73.674
72.4418
71.0075
68.9759
65.5331
60.3255
112.055
111.616
111.346
110.912
109.963
108.289
105.979
103.287
100.47
97.7022
95.0747
92.743
90.7436
88.8636
87.0964
85.4331
83.8645
82.3814
80.9752
79.6376
78.3607
77.1358
75.9537
74.801
73.6522
72.4471
71.0279
68.9978
65.5635
60.454
109.352
109.089
109.02
108.796
108.052
106.572
104.439
101.908
99.2368
96.5995
94.0888
91.8971
89.9996
88.212
86.5289
84.9425
83.4446
82.027
80.6815
79.4002
78.1755
76.9992
75.862
74.7499
73.6363
72.4583
71.0542
69.0261
65.6015
60.5905
106.736
106.637
106.754
106.727
106.177
104.881
102.919
100.545
98.0153
95.5055
93.1093
91.0588
89.2619
87.5656
85.966
84.4562
83.029
81.6766
80.3917
79.1668
77.9947
76.8675
75.7755
74.7045
73.6266
72.476
71.0873
69.0615
65.6475
60.7355
104.202
104.255
104.545
104.702
104.337
103.217
101.419
99.1969
96.8049
94.4197
92.1361
90.2284
88.5308
86.925
85.4081
83.9745
82.6176
81.3304
80.1064
78.9382
77.819
76.741
75.6948
74.6653
73.6233
72.5003
71.1273
69.1043
65.7022
60.8896
101.744
101.939
102.39
102.72
102.529
101.577
99.9383
97.8626
95.6051
93.342
91.1688
89.4062
87.8068
86.2906
84.8559
83.4981
82.2114
80.9894
79.826
78.7145
77.6485
76.6203
75.6201
74.6325
73.6267
72.5318
71.1745
69.1549
65.7661
61.0533
99.3578
99.6844
100.286
100.778
100.751
99.9611
98.4747
96.5416
94.4152
92.2718
90.2075
88.5928
87.0904
85.6631
84.31
83.0276
81.8106
80.6536
79.551
78.4965
77.4838
76.5056
75.5518
74.6066
73.6375
72.5708
71.2296
69.214
65.8397
61.2272
97.038
97.4876
98.2295
98.8737
99.0033
98.3669
97.0279
95.2332
93.2351
91.2092
89.2544
87.7889
86.3826
85.0433
83.7713
82.5639
81.4164
80.3245
79.2824
78.2848
77.3257
76.3976
75.4905
74.5879
73.6559
72.6176
71.2928
69.2819
65.9237
61.4121
94.78
95.3449
96.2178
97.005
97.2827
96.7936
95.5969
93.9368
92.0642
90.1539
88.3571
86.9955
85.6842
84.4323
83.2407
82.1078
81.0297
80.0023
79.0208
78.0802
77.1744
76.2966
75.4366
74.5769
73.6821
72.6728
71.3646
69.3592
66.0186
61.6086
92.579
93.2525
94.2482
95.1702
95.5884
95.2402
94.1809
92.6521
90.9024
89.1062
87.4729
86.2139
84.9968
83.8314
82.7198
81.6608
80.6515
79.6884
78.7672
77.8832
77.0309
76.2035
75.3905
74.574
73.7167
72.7363
71.4454
69.4464
66.125
61.8174
90.4305
91.2069
92.3183
93.3673
93.919
93.7059
92.7796
91.3787
89.7499
88.0663
86.6034
85.4458
84.3219
83.2422
82.2098
81.2242
80.2832
79.3837
78.5224
77.6947
76.8958
76.1185
75.3527
74.5794
73.7599
72.8088
71.5354
69.5439
66.2437
62.0393
88.3299
89.2043
90.4254
91.5948
92.2735
92.1899
91.3924
90.1166
88.6069
87.035
85.7509
84.6935
83.6618
82.6668
81.7127
80.7997
79.9261
79.0898
78.2877
77.5158
76.7697
76.0425
75.3236
74.5935
73.8119
72.8903
71.6351
69.6524
66.3754
62.2754
86.2723
87.2415
88.5673
89.8513
90.6512
90.6922
90.0196
88.8663
87.4743
86.0136
84.9182
83.9599
83.0191
82.1078
81.231
80.3893
79.5824
78.8082
78.0644
77.3477
76.6537
75.976
75.3038
74.6167
73.8728
72.9811
71.7447
69.772
66.5206
62.5263
84.2521
85.3144
86.7418
88.1359
89.0519
89.2128
88.6618
87.6291
86.3539
85.0042
84.1093
83.2485
82.3973
81.5683
80.7672
79.9959
79.254
78.5406
77.854
77.1914
76.5487
75.9197
75.2936
74.6492
73.9428
73.0811
71.8641
69.9032
66.6802
62.7935
82.2652
83.4202
84.9476
86.4486
87.4764
87.7531
87.3207
86.407
85.2484
84.0671
83.3297
82.5645
81.8008
81.0525
80.3253
79.6222
78.9436
78.2895
77.6585
77.0484
76.4558
75.8744
75.2935
74.6911
74.022
73.1902
71.9934
70.0463
66.8548
63.0781
80.3013
81.553
83.1826
84.7898
85.9268
86.316
85.9999
85.2045
84.1629
83.2223
82.5864
81.9143
81.2359
80.5654
79.9097
79.2724
78.6551
78.0579
77.4805
76.9212
76.3768
75.8416
75.3045
74.7429
74.1104
73.3081
72.1323
70.2011
67.0451
63.3816
78.3621
79.7154
81.4509
83.1646
84.4079
84.9064
84.7045
84.0271
83.1035
82.427
81.889
81.3066
80.71
80.114
79.5266
78.952
78.3927
77.8498
77.3234
76.8124
76.314
75.8229
75.3278
74.8054
74.208
73.4348
72.2802
70.3674
67.2515
63.7056
76.4113
77.888
79.7464
81.5757
82.928
83.5355
83.4482
82.8905
82.0879
81.6951
81.2507
80.7537
80.2343
79.7088
79.1854
78.6697
78.1648
77.6726
77.1937
76.7278
76.2725
75.8224
75.3662
74.8806
74.3161
73.5702
72.4366
70.5445
67.4742
64.0525
74.5029
76.1142
78.1026
80.0473
81.5032
82.2139
82.2381
81.8007
81.2888
81.0496
80.6907
80.2715
79.8227
79.361
78.8962
78.4341
77.9787
77.5325
77.0969
76.6719
76.2556
75.8428
75.4222
74.9696
74.4345
73.7135
72.6001
70.7303
67.7114
64.4209
72.4394
74.2849
76.4804
78.5843
80.1651
80.9906
81.1365
80.8296
80.6678
80.5151
80.2353
79.8871
79.5021
79.0977
78.6844
78.2694
77.8572
77.451
77.0526
76.6626
76.2794
75.8979
75.5066
75.081
74.5698
73.8681
72.7708
70.9232
67.962
64.8167
70.649
72.7028
75.0545
77.2682
78.9332
79.849
80.1061
80.0935
80.2328
80.1404
79.9174
79.6212
79.2837
78.9226
78.549
78.1707
77.7925
77.4181
77.0496
76.6876
76.3311
75.9747
75.6071
75.2029
74.7102
74.0234
72.9394
71.1137
68.2134
65.2144
67.9242
70.7456
73.6406
76.1683
78.0311
79.1115
79.54
79.8107
80.0039
79.9662
79.7922
79.5387
79.2382
78.9094
78.5641
78.2106
77.8544
77.4996
77.1489
76.8033
76.4614
76.1186
75.7628
75.3681
74.8816
74.1976
73.1154
71.3047
68.4711
65.6508
67.1636
69.9638
72.7285
75.2295
77.1424
78.3861
79.3493
79.8847
80.0453
79.9811
79.7888
79.5241
79.2179
78.8879
78.5452
78.1969
77.8479
77.5019
77.161
76.8261
76.4955
76.1641
75.8198
75.4362
74.9603
74.2868
73.2181
71.4335
68.6606
65.9639
61.6898
68.37
72.8486
75.9454
78.1011
79.4128
80.0651
80.3149
80.3395
80.2178
80.0044
79.7359
79.4344
79.1129
78.7798
78.4411
78.101
77.763
77.4291
77.0998
76.7731
76.4436
76.0976
75.7078
75.2188
74.5252
73.4349
71.6506
68.9551
66.4761
63.0137
68.6713
72.8315
75.8579
77.9596
79.2679
79.9973
80.3311
80.3883
80.2761
80.0678
79.8053
79.5111
79.198
78.8741
78.5451
78.2149
77.8863
77.5612
77.2394
76.9185
76.5922
76.2457
75.8504
75.3495
74.6362
73.5195
71.7117
69.0311
66.6871
66.3701
68.3151
70.994
73.8073
76.186
77.8543
78.8178
79.241
79.3197
79.2168
79.051
78.8724
78.6728
78.4485
78.2036
77.9434
77.6732
77.3969
77.1175
76.8365
76.553
76.2616
75.9495
75.5897
75.1275
74.4578
73.3897
71.6316
68.9971
66.7284
66.4495
68.2578
70.6125
73.1228
75.3291
76.9523
77.9468
78.433
78.5967
78.6485
78.622
78.5216
78.3713
78.187
77.9787
77.7535
77.5165
77.2722
77.0235
76.7718
76.516
76.2507
75.9632
75.6259
75.1838
74.5298
73.4705
71.7113
69.0766
66.863
67.213
68.4458
70.364
72.6093
74.7023
76.3241
77.377
77.9368
78.1486
78.1485
78.0832
78.0203
77.9087
77.7626
77.5919
77.4035
77.2024
76.9927
76.7773
76.5577
76.3328
76.0977
75.8395
75.5309
75.1161
74.4872
73.4472
71.6975
69.0668
66.8902
67.4993
68.5321
70.2224
72.2927
74.2828
75.8692
76.9342
77.5293
77.7829
77.8223
77.796
77.7479
77.6507
77.5213
77.3692
77.2007
77.0205
76.8323
76.6388
76.4411
76.238
76.0246
75.7878
75.4996
75.1037
74.4897
73.4573
71.7033
69.0651
66.9203
67.774
68.6578
70.1699
72.1017
74.0086
75.5621
76.6309
77.2498
77.5339
77.6041
77.5709
77.531
77.4443
77.3274
77.1893
77.0363
76.8725
76.7014
76.5254
76.3455
76.1605
75.9651
75.746
75.4746
75.0935
74.4902
73.4608
71.6984
69.0501
66.9327
67.959
68.7577
70.1464
71.9755
73.8182
75.3428
76.4096
77.0421
77.3471
77.4396
77.4238
77.3877
77.3073
77.1986
77.0703
76.9284
76.7767
76.6186
76.4558
76.2897
76.1187
75.937
75.7312
75.472
75.1007
74.5027
73.4706
71.6966
69.0388
66.9462
68.1108
68.8494
70.1441
71.8928
73.6857
75.1872
76.2506
76.892
77.2113
77.3205
77.3187
77.2848
77.2086
77.106
76.9856
76.8525
76.7106
76.5629
76.4111
76.2563
76.0963
75.9255
75.7299
75.4797
75.1148
74.5185
73.4836
71.7084
69.0289
66.9597
68.2325
68.9286
70.15
71.8347
73.5891
75.0731
76.134
76.7816
77.1114
77.2325
77.2465
77.2133
77.1398
77.0416
76.9272
76.8012
76.6673
76.5282
76.3854
76.2394
76.0885
75.9264
75.7387
75.4947
75.1336
74.5363
73.5124
71.7124
69.0165
66.9758
68.3352
68.9986
70.1606
71.7924
73.5163
74.988
76.0478
76.7004
77.0381
77.1682
77.1965
77.163
77.0911
76.9962
76.8864
76.7661
76.6387
76.5066
76.3712
76.2329
76.0893
75.9341
75.7524
75.5131
75.1536
74.5728
73.5339
71.7109
69.0028
66.9937
68.4229
69.0607
70.173
71.7597
73.459
74.9225
75.9831
76.6407
76.9847
77.1301
77.1631
77.1288
77.0575
76.9649
76.8585
76.7427
76.6206
76.4943
76.365
76.2328
76.0953
75.9457
75.7686
75.5323
75.1877
74.6037
73.5494
71.7058
68.9888
67.0133
68.4995
69.1163
70.186
71.7332
73.4121
74.8705
75.9337
76.598
76.9582
77.1107
77.1417
77.1063
77.0351
76.9438
76.8399
76.7277
76.6099
76.4884
76.3641
76.237
76.1044
75.9591
75.7857
75.5618
75.2213
74.6291
73.5605
71.6977
68.9748
67.0337
68.5673
69.1666
70.1988
71.7106
73.3722
74.828
75.9096
76.5876
76.9485
77.1002
77.1295
77.0929
77.0214
76.9306
76.8286
76.7191
76.6045
76.4868
76.3667
76.2438
76.1152
75.9736
75.8107
75.5948
75.2504
74.6503
73.568
71.6878
68.9611
67.0544
68.6278
69.2125
70.2112
71.6909
73.3371
74.8119
75.8989
76.5815
76.9446
77.0962
77.1244
77.0864
77.0143
76.9238
76.8228
76.7153
76.6035
76.4889
76.372
76.2526
76.1271
75.9949
75.841
75.6237
75.2756
74.668
73.5729
71.6763
68.9476
67.0751
68.6825
69.2547
70.2232
71.6731
73.3177
74.7958
75.8897
76.5783
76.9447
77.0971
77.1246
77.0855
77.0125
76.9219
76.8216
76.7155
76.6057
76.4934
76.3794
76.2627
76.1456
76.0217
75.8679
75.6494
75.2977
74.6827
73.5753
71.6636
68.9342
67.0954
68.7323
69.2939
70.2348
71.6567
73.299
74.7794
75.881
76.577
76.9478
77.1017
77.129
77.0888
77.015
76.9241
76.8242
76.719
76.6106
76.5004
76.3884
76.2784
76.169
76.0462
75.8925
75.6726
75.3171
74.6952
73.576
71.6498
68.921
67.1151
68.7781
69.3304
70.246
71.6418
73.2794
74.7625
75.8727
76.5769
76.953
77.1092
77.1365
77.0958
77.021
76.9297
76.8298
76.7251
76.6179
76.5091
76.4015
76.2988
76.1908
76.0687
75.9149
75.6934
75.3346
74.7058
73.5751
71.6353
68.9078
67.1341
68.8204
69.3646
70.2568
71.6323
73.2592
74.7451
75.8643
76.5776
76.9598
77.1188
77.1466
77.1054
77.0298
76.938
76.8379
76.7336
76.6272
76.5192
76.4196
76.3184
76.2113
76.0898
75.9357
75.7128
75.3503
74.7148
73.5729
71.62
68.8946
67.1523
68.8598
69.3969
70.2674
71.6226
73.2385
74.7272
75.8558
76.5786
76.9674
77.1298
77.1588
77.1172
77.0411
76.9485
76.8482
76.7441
76.6381
76.5352
76.4372
76.3372
76.2309
76.1096
75.9551
75.7306
75.3648
74.7224
73.5696
71.604
68.8816
67.1697
68.8967
69.4276
70.2778
71.6125
73.2174
74.7088
75.847
76.5798
76.9759
77.1421
77.1724
77.1309
77.0541
76.9611
76.8603
76.7561
76.6503
76.5517
76.4547
76.3554
76.2497
76.1287
75.9734
75.7473
75.3779
74.7291
73.5654
71.5875
68.8686
67.1864
68.9315
69.457
70.2879
71.6022
73.1961
74.6899
75.8378
76.5809
76.9846
77.1552
77.1874
77.1459
77.0687
76.9751
76.874
76.7696
76.6638
76.5684
76.4721
76.3733
76.2679
76.1468
75.991
75.7631
75.3902
74.7347
73.5603
71.5707
68.8557
67.2024
68.9644
69.485
70.2981
71.5921
73.1749
74.6707
75.8281
76.5819
76.9935
77.1689
77.2031
77.1621
77.0846
76.9903
76.8888
76.7841
76.6802
76.5852
76.4893
76.3909
76.2858
76.1645
76.0079
75.7782
75.4016
74.7396
73.5544
71.5535
68.8429
67.2178
68.9957
69.5121
70.3082
71.5822
73.1537
74.6512
75.8182
76.5825
77.0025
77.1829
77.2195
77.1792
77.1015
77.0067
76.9046
76.7996
76.6969
76.6021
76.5065
76.4084
76.3033
76.1816
76.0242
75.7926
75.4124
74.7438
73.548
71.5361
68.8303
67.2325
69.0256
69.5382
70.3183
71.5724
73.1326
74.6315
75.8077
76.5828
77.0114
77.1972
77.2362
77.1968
77.119
77.0238
76.9214
76.8159
76.7139
76.6192
76.5239
76.4257
76.3205
76.1984
76.04
75.8065
75.4227
74.7474
73.5411
71.5185
68.8179
67.2467
69.0544
69.5634
70.3284
71.563
73.1116
74.6116
75.7969
76.5828
77.0201
77.2114
77.2534
77.215
77.1373
77.0417
76.9387
76.833
76.7313
76.6366
76.5411
76.443
76.3376
76.215
76.0556
75.82
75.4324
74.7504
73.5338
71.5007
68.8057
67.2604
69.082
69.588
70.3386
71.5541
73.0909
74.5915
75.7856
76.5823
77.0287
77.2257
77.2708
77.2335
77.1558
77.06
76.9566
76.8504
76.7488
76.6541
76.5585
76.4602
76.3544
76.2313
76.0707
75.8331
75.4418
74.7531
73.5261
71.4829
68.7937
67.2737
69.1087
69.6119
70.3489
71.5454
73.0706
74.5714
75.774
76.5815
77.0369
77.24
77.2883
77.2522
77.1749
77.0787
76.9749
76.8683
76.7666
76.6717
76.5759
76.4774
76.3712
76.2474
76.0856
75.846
75.4508
74.7554
73.518
71.4649
68.782
67.2865
69.1346
69.6353
70.3593
71.5373
73.0505
74.5512
75.7621
76.5802
77.0447
77.2541
77.3058
77.2711
77.1941
77.0977
76.9935
76.8866
76.7846
76.6894
76.5933
76.4944
76.3879
76.2633
76.1004
75.8586
75.4595
74.7573
73.5097
71.447
68.7706
67.299
69.1597
69.6582
70.3698
71.5296
73.0308
74.5309
75.7497
76.5786
77.0524
77.268
77.3231
77.2901
77.2135
77.117
77.0124
76.905
76.8027
76.7072
76.6108
76.5116
76.4044
76.2792
76.1149
75.8709
75.4679
74.7589
73.501
71.4292
68.7594
67.3113
69.1841
69.6806
70.3803
71.5224
73.0115
74.5108
75.7372
76.5764
77.0596
77.2816
77.3404
77.3091
77.2329
77.1364
77.0315
76.9237
76.8208
76.7249
76.6283
76.5286
76.421
76.2949
76.1294
75.8831
75.476
74.7603
73.4921
71.4113
68.7485
67.3232
69.2079
69.7026
70.391
71.5156
72.9927
74.4907
75.7243
76.5739
77.0663
77.2949
77.3575
77.328
77.2525
77.1559
77.0507
76.9425
76.8391
76.7428
76.6458
76.5456
76.4374
76.3104
76.1436
75.895
75.484
74.7614
73.4832
71.3935
68.738
67.3349
69.2312
69.7243
70.4019
71.5094
72.9742
74.4706
75.7112
76.5711
77.0727
77.308
77.3746
77.347
77.272
77.1753
77.0698
76.9614
76.8573
76.7606
76.6631
76.5626
76.4537
76.3259
76.1577
75.9068
75.4918
74.7622
73.474
71.3759
68.7278
67.3464
69.2539
69.7456
70.4128
71.5035
72.9562
74.4506
75.6978
76.5678
77.0788
77.3207
77.3913
77.3656
77.2914
77.1949
77.0892
76.9803
76.8755
76.7786
76.6806
76.5794
76.47
76.3413
76.1717
75.9185
75.4994
74.7629
73.4647
71.3584
68.7179
67.3577
69.2761
69.7665
70.4239
71.4982
72.9386
74.4307
75.6842
76.5641
77.0843
77.3332
77.4078
77.3842
77.3107
77.2143
77.1085
76.9992
76.8939
76.7963
76.698
76.5963
76.4862
76.3567
76.1855
75.93
75.5067
74.7634
73.4554
71.3411
68.7083
67.3689
69.2979
69.7872
70.4349
71.4934
72.9215
74.4111
75.6705
76.56
77.0896
77.3453
77.4241
77.4027
77.3299
77.2337
77.1277
77.0181
76.9121
76.8142
76.7153
76.6131
76.5023
76.3718
76.1993
75.9414
75.5141
74.7637
73.4458
71.324
68.6992
67.3798
69.3193
69.8075
70.4462
71.489
72.9049
74.3916
75.6565
76.5556
77.0944
77.357
77.4401
77.4209
77.3492
77.253
77.1468
77.0369
76.9302
76.832
76.7326
76.6299
76.5185
76.3871
76.2131
75.9526
75.5212
74.7638
73.4363
71.3069
68.6902
67.3907
69.3404
69.8276
70.4575
71.485
72.8887
74.3722
75.6424
76.5509
77.099
77.3684
77.4559
77.4389
77.3682
77.2722
77.1659
77.0558
76.9485
76.8497
76.7498
76.6466
76.5345
76.4021
76.2267
75.9639
75.5281
74.7639
73.4266
71.29
68.6816
67.4015
69.361
69.8475
70.4688
71.4815
72.8729
74.353
75.6282
76.5458
77.1031
77.3796
77.4714
77.4568
77.3869
77.2914
77.1849
77.0745
76.9665
76.8673
76.767
76.6632
76.5505
76.4172
76.2403
75.975
75.535
74.7637
73.4169
71.2734
68.6733
67.4121
69.3813
69.8671
70.4803
71.4784
72.8577
74.334
75.6138
76.5405
77.1068
77.3903
77.4867
77.4744
77.4056
77.3103
77.2038
77.0931
76.9845
76.8848
76.7841
76.6798
76.5663
76.432
76.2537
75.9859
75.5418
74.7636
73.407
71.257
68.6654
67.4227
69.4013
69.8865
70.492
71.4758
72.8428
74.3153
75.5995
76.5348
77.1102
77.4008
77.5015
77.4919
77.4242
77.3293
77.2226
77.1118
77.0024
76.9024
76.8012
76.6962
76.5821
76.4468
76.267
75.9968
75.5483
74.7632
73.3973
71.2406
68.6578
67.4332
69.421
69.9056
70.5036
71.4735
72.8284
74.2967
75.585
76.5289
77.1132
77.4107
77.5163
77.509
77.4426
77.348
77.2412
77.1301
77.0202
76.9198
76.8181
76.7127
76.5979
76.4617
76.2803
76.0075
75.5548
74.7627
73.3874
71.2246
68.6504
67.4436
69.4403
69.9245
70.5153
71.4716
72.8143
74.2783
75.5704
76.5227
77.116
77.4205
77.5306
77.526
77.4607
77.3665
77.2598
77.1485
77.0381
76.9371
76.835
76.729
76.6135
76.4763
76.2934
76.0182
75.5612
74.762
73.3775
71.2087
68.6434
67.454
69.4595
69.9432
70.527
71.47
72.8008
74.2602
75.5558
76.5163
77.1183
77.43
77.5448
77.5427
77.4787
77.3849
77.2783
77.1667
77.0556
76.9544
76.8518
76.7454
76.6291
76.4909
76.3066
76.0288
75.5674
74.7613
73.3676
71.193
68.6368
67.4643
69.4783
69.9618
70.5389
71.4689
72.7877
74.2424
75.5412
76.5095
77.1203
77.4391
77.5586
77.5592
77.4965
77.4031
77.2965
77.1849
77.0732
76.9715
76.8685
76.7614
76.6446
76.5055
76.3196
76.0393
75.5736
74.7605
73.3578
71.1775
68.6303
67.4745
69.4969
69.9802
70.5507
71.4679
72.7749
74.2247
75.5265
76.5027
77.122
77.448
77.5722
77.5756
77.5141
77.4212
77.3147
77.2029
77.0907
76.9886
76.8851
76.7776
76.66
76.5199
76.3325
76.0496
75.5797
74.7595
73.3479
71.1623
68.6242
67.4847
69.5153
69.9983
70.5627
71.4675
72.7626
74.2073
75.5118
76.4955
77.1234
77.4564
77.5855
77.5916
77.5316
77.4392
77.3327
77.2207
77.108
77.0056
76.9016
76.7936
76.6754
76.5343
76.3454
76.0599
75.5855
74.7585
73.3379
71.1471
68.6183
67.4949
69.5333
70.0163
70.5745
71.4672
72.7506
74.1901
75.4972
76.4882
77.1246
77.4646
77.5985
77.6075
77.5489
77.457
77.3507
77.2386
77.1253
77.0225
76.918
76.8096
76.6906
76.5487
76.3582
76.0701
75.5914
74.7574
73.3279
71.1322
68.6127
67.505
69.5512
70.0341
70.5865
71.4674
72.7392
74.1732
75.4825
76.4806
77.1253
77.4725
77.6114
77.6231
77.5659
77.4747
77.3683
77.2561
77.1425
77.0392
76.9345
76.8254
76.7059
76.5629
76.3708
76.0803
75.5971
74.7562
73.318
71.1176
68.6073
67.5152
69.5689
70.0517
70.5985
71.4677
72.7279
74.1565
75.4677
76.4729
77.1259
77.48
77.6239
77.6386
77.5828
77.4922
77.386
77.2737
77.1595
77.0559
76.9508
76.8412
76.721
76.577
76.3834
76.0903
75.6027
74.7548
73.3081
71.1031
68.6023
67.5254
69.5862
70.0692
70.6106
71.4689
72.7172
74.1401
75.4531
76.465
77.1262
77.4873
77.636
77.6538
77.5995
77.5096
77.4034
77.2911
77.1766
77.0725
76.967
76.857
76.7361
76.5911
76.396
76.1002
75.6082
74.7534
73.2981
71.0889
68.5975
67.5354
69.6035
70.0865
70.6227
71.4703
72.7068
74.1239
75.4384
76.4569
77.1261
77.4944
77.648
77.6688
77.6161
77.5268
77.4208
77.3084
77.1936
77.089
76.9831
76.8725
76.7509
76.6051
76.4084
76.11
75.6136
74.7518
73.2881
71.0748
68.593
67.5455
69.6204
70.1036
70.6348
71.4719
72.6968
74.108
75.4239
76.4488
77.126
77.5011
77.6598
77.6836
77.6325
77.5437
77.438
77.3255
77.2106
77.1054
76.9991
76.8881
76.7658
76.619
76.4208
76.1197
75.6189
74.7502
73.2783
71.061
68.5887
67.5556
69.6373
70.1206
70.6468
71.4739
72.687
74.0923
75.4093
76.4404
77.1254
77.5076
77.6713
77.6982
77.6486
77.5608
77.4552
77.3425
77.2276
77.1217
77.0151
76.9035
76.7807
76.6329
76.4331
76.1294
75.6241
74.7486
73.2683
71.0472
68.5846
67.5656
69.6539
70.1374
70.659
71.476
72.6777
74.0768
75.3947
76.4319
77.1247
77.5138
77.6826
77.7125
77.6647
77.5775
77.4722
77.3595
77.2443
77.138
77.0308
76.9189
76.7954
76.6466
76.4453
76.139
75.6292
74.7468
73.2584
71.0337
68.5808
67.5756
69.6703
70.1541
70.6711
71.4783
72.6686
74.0616
75.3803
76.4233
77.1237
77.5197
77.6936
77.7268
77.6806
77.5941
77.489
77.3763
77.261
77.1541
77.0467
76.9343
76.8101
76.6604
76.4574
76.1485
75.6342
74.745
73.2485
71.0205
68.5772
67.5857
69.6865
70.1706
70.6832
71.4809
72.66
74.0466
75.3659
76.4145
77.1225
77.5255
77.7044
77.7407
77.6963
77.6106
77.5057
77.393
77.2775
77.1701
77.0624
76.9495
76.8246
76.674
76.4695
76.1579
75.6391
74.743
73.2386
71.0074
68.5738
67.5957
69.7026
70.187
70.6954
71.4837
72.6517
74.0319
75.3516
76.4056
77.1211
77.531
77.7149
77.7544
77.7118
77.6268
77.5224
77.4095
77.2939
77.1861
77.078
76.9646
76.8393
76.6875
76.4815
76.1671
75.6439
74.741
73.2287
70.9944
68.5707
67.6058
69.7185
70.2032
70.7075
71.4866
72.6436
74.0175
75.3373
76.3966
77.1195
77.5361
77.7253
77.768
77.7272
77.6431
77.5388
77.4261
77.3102
77.2019
77.0935
76.9797
76.8537
76.701
76.4934
76.1764
75.6487
74.739
73.2189
70.9817
68.5677
67.6158
69.7342
70.2194
70.7196
71.4897
72.6359
74.0033
75.3231
76.3876
77.1176
77.5411
77.7354
77.7814
77.7424
77.6591
77.5551
77.4425
77.3265
77.2178
77.1089
76.9947
76.868
76.7144
76.5053
76.1854
75.6533
74.7368
73.2091
70.9691
68.565
67.6258
69.7498
70.2353
70.7317
71.493
72.6284
73.9893
75.309
76.3784
77.1156
77.5459
77.7452
77.7946
77.7573
77.6751
77.5714
77.4587
77.3427
77.2334
77.1242
77.0095
76.8823
76.7278
76.517
76.1945
75.6578
74.7345
73.1992
70.9568
68.5624
67.6358
69.7652
70.2511
70.7438
71.4965
72.6212
73.9755
75.295
76.3691
77.1134
77.5504
77.7548
77.8076
77.7723
77.6908
77.5875
77.4749
77.3588
77.2491
77.1395
77.0245
76.8966
76.741
76.5286
76.2034
75.6622
74.7322
73.1895
70.9446
68.5602
67.6458
69.7804
70.2669
70.7559
71.5001
72.6143
73.9621
75.2809
76.3598
77.1109
77.5546
77.7643
77.8205
77.787
77.7065
77.6035
77.4909
77.3747
77.2646
77.1548
77.0392
76.9107
76.7542
76.5402
76.2123
75.6664
74.7297
73.1797
70.9326
68.558
67.6559
69.7955
70.2825
70.768
71.504
72.6078
73.9488
75.2671
76.3503
77.1082
77.5586
77.7736
77.833
77.8016
77.722
77.6194
77.5069
77.3905
77.2801
77.1698
77.0539
76.9248
76.7673
76.5518
76.2211
75.6706
74.7273
73.1701
70.9208
68.556
67.6659
69.8104
70.2979
70.7801
71.508
72.6014
73.9358
75.2533
76.3408
77.1056
77.5626
77.7826
77.8455
77.8159
77.7374
77.6352
77.5228
77.4063
77.2954
77.1849
77.0686
76.9388
76.7804
76.5632
76.2297
75.6748