/*--------------------------------*- C++ -*----------------------------------*\
  =========                 |
  \\      /  F ield         | OpenFOAM: The Open Source CFD Toolbox
   \\    /   O peration     | Website:  https://openfoam.org
    \\  /    A nd           | Version:  8
     \\/     M anipulation  |
\*---------------------------------------------------------------------------*/
FoamFile
{
    version     2.0;
    format      ascii;
    class       volScalarField;
    location    "1.2";
    object      tb3;
}
// * * * * * * * * * * * * * * * * * * * * * * * * * * * * * * * * * * * * * //

dimensions      [0 0 0 0 0 0 0];

internalField   nonuniform List<scalar> 
6300
(
1037.41
503.647
344.77
274.923
233.802
205.549
184.22
167.227
153.282
141.631
131.768
123.323
116.021
109.648
104.04
99.0677
94.629
90.6417
87.0394
83.7679
80.7824
78.0461
75.528
73.202
71.0454
69.0323
67.1094
65.0725
62.0186
54.1342
710.953
402.54
304.364
252.731
219.57
195.563
176.826
161.565
148.849
138.106
128.933
121.026
114.149
108.118
102.788
98.0454
93.7973
89.9699
86.5027
83.3461
80.4589
77.8069
75.3613
73.0972
70.9929
69.0225
67.1309
65.1134
62.0589
54.2023
571.268
372.699
290.705
244.15
213.406
190.881
173.168
158.654
146.494
136.173
127.326
119.674
113
107.134
101.941
97.3115
93.1599
89.4153
86.0198
82.9259
80.094
77.491
75.0889
72.8638
70.794
68.8542
66.9903
64.9984
61.9608
54.1918
478.615
343.972
276.752
235.587
207.355
186.278
169.54
155.737
144.118
134.216
125.7
118.313
111.853
106.163
101.114
96.6057
92.5563
88.8991
85.5813
82.5575
79.7867
77.2366
74.8808
72.6966
70.6634
68.7569
66.922
64.9495
61.9026
54.2108
417.694
319.522
263.876
227.637
201.85
182.171
166.332
153.164
142.022
132.493
124.274
117.126
110.863
105.332
100.416
96.0176
92.0603
88.4806
85.2316
82.2673
79.5468
77.0399
74.7215
72.5697
70.5648
68.6825
66.8674
64.9048
61.8436
54.2279
374.091
298.866
252.095
220.092
196.574
178.234
163.261
150.696
140.003
130.824
122.885
115.966
109.889
104.513
99.7252
95.4349
91.5684
88.0656
84.8892
81.983
79.3122
76.8483
74.5669
72.4473
70.4702
68.6114
66.8145
64.8595
61.7835
54.247
340.732
281.195
241.354
212.956
191.501
174.431
160.292
148.31
138.048
129.202
121.53
114.829
108.931
103.705
99.0421
94.8569
91.0794
87.6614
84.552
81.7027
79.081
76.6595
74.4148
72.3269
70.3769
68.541
66.7618
64.8129
61.7227
54.2677
314.044
265.865
231.565
206.24
186.64
170.757
157.415
145.995
136.147
127.623
120.207
113.715
107.991
102.909
98.3673
94.2846
90.5943
87.2621
84.218
81.425
78.8518
76.4722
74.2638
72.2073
70.2842
68.4711
66.7088
64.7657
61.6622
54.29
292.036
252.394
222.616
199.932
181.994
167.21
154.625
143.743
134.296
126.081
118.912
112.622
107.066
102.124
97.6999
93.7172
90.1239
86.8667
83.8869
81.1494
78.6241
76.286
74.1137
72.0884
70.1921
68.4016
66.656
64.718
61.6021
54.3138
273.48
240.425
214.399
194.004
177.559
163.79
151.917
141.551
132.489
124.573
117.643
111.548
106.154
101.348
97.0392
93.1544
89.6583
86.4747
83.5584
80.8757
78.3979
76.1012
73.9646
71.9702
70.1007
68.3324
66.6032
64.6702
61.543
54.3391
257.559
229.687
206.816
188.426
173.325
160.491
149.288
139.414
130.723
123.095
116.397
110.491
105.255
100.581
96.3845
92.6039
89.1969
86.0859
83.2322
80.6037
78.173
75.9171
73.8161
71.8527
70.0098
68.2639
66.5511
64.6226
61.4847
54.3659
243.702
219.976
199.787
183.165
169.28
157.31
146.735
137.329
128.995
121.646
115.172
109.45
104.366
99.822
95.7354
92.0635
88.7395
85.7
82.9082
80.3333
77.9493
75.734
73.6686
71.736
69.9199
68.1962
66.4996
64.5754
61.4276
54.3942
231.495
211.131
193.244
178.192
165.412
154.24
144.256
135.295
127.303
120.224
113.967
108.424
103.489
99.0705
95.0913
91.528
88.2857
85.3167
82.5861
80.0644
77.7268
75.5521
73.5219
71.6203
69.8307
68.1294
66.4489
64.5287
61.3718
54.4241
220.627
203.026
187.129
173.479
161.708
151.276
141.846
133.308
125.645
118.826
112.78
107.411
102.621
98.326
94.4611
90.997
87.8353
84.936
82.2658
79.7969
77.5054
75.3711
73.3763
71.5055
69.7427
68.0638
66.3992
64.4828
61.3173
54.4558
210.865
195.559
181.394
169.005
158.156
148.412
139.503
131.368
124.021
117.453
111.611
106.41
101.763
97.588
93.8425
90.4704
87.388
84.5576
81.9474
79.5308
77.2853
75.1911
73.2317
71.3918
69.6558
67.9992
66.3506
64.4377
61.2643
54.489
202.026
188.646
176
164.747
154.747
145.642
137.225
129.472
122.427
116.102
110.458
105.422
100.913
96.8561
93.2293
89.9478
86.9437
84.1813
81.6306
79.2662
77.0664
75.0125
73.0883
71.2793
69.5703
67.9362
66.3032
64.3936
61.2129
54.5241
193.965
182.218
170.912
160.687
151.469
142.961
135.006
127.618
120.863
114.773
109.321
104.446
100.072
96.13
92.6214
89.429
86.5023
83.8073
81.3155
79.0028
76.8486
74.8348
72.946
71.1682
69.4862
67.8746
66.2573
64.3506
61.1631
54.561
186.569
176.219
166.099
156.81
148.313
140.364
132.846
125.804
119.328
113.465
108.2
103.48
99.2382
95.4151
92.0183
88.9138
86.0634
83.4352
81.002
78.7409
76.632
74.6584
72.8051
71.0585
69.4037
67.8146
66.2128
64.3088
61.1151
54.6
179.744
170.599
161.537
153.1
145.272
137.845
130.74
124.029
117.821
112.176
107.092
102.525
98.4121
94.7166
91.4198
88.402
85.6272
83.0651
80.6901
78.4802
76.4167
74.4833
72.6656
70.9503
69.3228
67.7565
66.1699
64.2683
61.069
54.641
173.416
165.318
157.203
149.546
142.338
135.401
128.686
122.29
116.339
110.907
105.999
101.58
97.5931
94.0242
90.8258
87.8935
85.1934
82.6969
80.3797
78.2209
76.2028
74.3095
72.5274
70.8438
69.2438
67.7002
66.1288
64.2294
61.025
54.6842
167.523
160.342
153.076
146.134
139.504
133.027
126.682
120.587
114.884
109.656
104.919
100.644
96.7808
93.3376
90.2361
87.3882
84.7619
82.3305
80.0708
77.963
75.9901
74.1371
72.3909
70.7389
69.1667
67.6458
66.0896
64.192
60.9831
54.7298
162.013
155.639
149.141
142.856
136.762
130.719
124.725
118.918
113.452
108.422
103.852
99.7176
95.9751
92.6566
89.6505
86.8858
84.3328
81.9659
79.7634
77.7065
75.7788
73.9662
72.2561
70.636
69.0917
67.5937
66.0523
64.1564
60.9436
54.7778
156.843
151.184
145.38
139.701
134.109
128.474
122.813
117.282
112.045
107.206
102.797
98.8
95.1756
91.9809
89.0687
86.3864
83.9058
81.6031
79.4576
77.4514
75.5691
73.797
72.1229
70.5351
69.0187
67.5437
66.0171
64.1226
60.9064
54.8285
151.976
146.955
141.782
136.661
131.538
126.287
120.944
115.676
110.659
106.006
101.754
97.8909
94.3821
91.3104
88.4908
85.8898
83.4811
81.242
79.1532
77.1978
75.3608
73.6294
71.9917
70.4363
68.9482
67.4961
65.9841
64.0909
60.872
54.8819
147.382
142.931
138.333
133.728
129.044
124.157
119.116
114.1
109.295
104.822
100.722
96.9899
93.6089
90.6449
87.9166
85.396
83.0584
80.8827
78.8505
76.9455
75.1541
73.4636
71.8626
70.3396
68.88
67.4511
65.9536
64.0613
60.8403
54.9384
143.034
139.095
135.022
130.896
126.622
122.08
117.326
112.552
107.952
103.652
99.7011
96.0968
92.8456
89.9842
87.346
84.9048
82.6378
80.5251
78.5492
76.6951
74.9492
73.2996
71.7354
70.2454
68.8145
67.4087
65.9256
64.0342
60.8116
54.998
138.908
135.433
131.84
128.158
124.269
120.052
115.572
111.03
106.628
102.497
98.6907
95.2111
92.0886
89.3282
86.7788
84.4163
82.2194
80.1693
78.2496
76.4461
74.7458
73.1375
71.6105
70.1537
68.7516
67.3691
65.9004
64.0096
60.7862
55.061
134.985
131.93
128.777
125.508
121.981
118.072
113.854
109.535
105.324
101.356
97.6904
94.3326
91.3379
88.6767
86.215
83.9304
81.803
79.8152
77.9517
76.1988
74.5443
72.9775
71.4878
70.0646
68.6917
67.3326
65.8779
63.9879
60.7641
55.1277
131.248
128.573
125.826
122.94
119.754
116.138
112.169
108.065
104.038
100.229
96.6998
93.461
90.5931
88.0297
85.6546
83.447
81.3886
79.4629
77.6555
75.9533
74.3449
72.8196
71.3677
69.9783
68.6348
67.2992
65.8585
63.9691
60.7457
55.1981
127.681
125.353
122.979
120.45
117.584
114.246
110.516
106.618
102.769
99.1136
95.7183
92.596
89.8542
87.3871
85.0974
82.9662
80.9764
79.1125
77.3609
75.7097
74.1474
72.6642
71.2503
69.8949
68.5811
67.2691
65.8424
63.9534
60.7312
55.2727
124.27
122.26
120.229
118.033
115.469
112.394
108.894
105.193
101.517
98.0109
94.7458
91.7373
89.121
86.7487
84.5435
82.488
80.5662
78.764
77.0684
75.468
73.9521
72.5111
71.1356
69.8147
68.5308
67.2426
65.8297
63.9413
60.7209
55.3517
121.004
119.284
117.57
115.685
113.405
110.581
107.3
103.79
100.28
96.92
93.7817
90.8847
88.3933
86.1145
83.9928
82.0123
80.1583
78.4175
76.7778
75.2282
73.7589
72.3606
71.0239
69.7378
68.4842
67.2198
65.8208
63.9328
60.7151
55.4354
117.871
116.418
114.997
113.402
111.39
108.805
105.733
102.408
99.0592
95.8402
92.8258
90.0378
87.6711
85.4845
83.4453
81.5392
79.7525
78.073
76.4891
74.9909
73.5684
72.2129
70.9152
69.6644
68.4414
67.2011
65.8158
63.9284
60.7141
55.524
114.862
113.653
112.504
111.181
109.421
107.063
104.193
101.045
97.8527
94.7711
91.8777
89.2
86.9542
84.8586
82.9011
81.0688
79.3491
77.7307
76.2027
74.7557
73.3804
72.0681
70.81
69.5947
68.4026
67.1865
65.815
63.9282
60.7181
55.618
111.969
110.985
110.086
109.017
107.496
105.354
102.677
99.7008
96.66
93.7123
90.937
88.3883
86.2427
84.2368
82.3602
80.6011
78.9482
77.3907
75.9188
74.5231
73.1951
71.9265
70.7083
69.5289
68.3681
67.1763
65.8186
63.9326
60.7276
55.7177
109.182
108.406
107.74
106.908
105.612
103.677
101.185
98.3743
95.4806
92.6632
90.0034
87.5835
85.5365
83.6193
81.8227
80.1364
78.5498
77.0532
75.6372
74.2933
73.0129
71.7882
70.6103
69.4674
68.3381
67.1709
65.827
63.9419
60.7429
55.8234
106.495
105.91
105.46
104.85
103.768
102.029
99.7151
97.0646
94.3138
91.6235
89.0766
86.7854
84.8357
83.006
81.2888
79.6747
78.1543
76.7185
75.3585
74.0662
72.834
71.6536
70.5163
69.4103
68.3129
67.1704
65.8404
63.9566
60.7644
55.9357
103.901
103.494
103.244
102.841
101.961
100.409
98.2669
95.771
93.159
90.5926
88.1563
85.9942
84.1403
82.3972
80.7586
79.2163
77.7618
76.3867
75.0828
73.8426
72.6585
71.5228
70.4267
69.3578
68.2927
67.1752
65.8593
63.9769
60.7925
56.0549
101.394
101.151
101.087
100.879
100.189
98.8167
96.8388
94.4926
92.0155
89.5701
87.2421
85.2099
83.4505
81.7929
80.2323
78.7614
77.3725
76.058
74.8105
73.6224
72.4868
71.3961
70.3417
69.3105
68.2779
67.1856
65.8838
64.0032
60.8278
56.1815
98.9687
98.8773
98.9859
98.9606
98.4508
97.2494
95.43
93.2287
90.8829
88.5557
86.3339
84.4326
82.7665
81.1937
79.7104
78.3105
76.9871
75.7331
74.5417
73.406
72.3192
71.274
70.2615
69.2684
68.2689
67.202
65.9144
64.036
60.8705
56.3159
96.619
96.6687
96.9379
97.0834
96.7443
95.7062
94.0393
91.9785
89.7606
87.549
85.4315
83.6627
82.0886
80.5996
79.1931
77.8638
76.6057
75.4122
74.2772
73.194
72.1563
71.1567
70.1866
69.2321
68.2659
67.2246
65.9515
64.0757
60.9212
56.4588
94.3403
94.521
94.9397
95.2455
95.0678
94.1859
92.6659
90.7413
88.648
86.5496
84.5346
82.9003
81.4172
80.0114
78.6811
77.4221
76.229
75.0959
74.0172
72.9866
71.9982
71.0448
70.1174
69.2016
68.2691
67.2538
65.9953
64.1226
60.9804
56.6105
92.1277
92.4305
92.9885
93.4446
93.4199
92.6871
91.3089
89.5164
87.5448
85.5574
83.6433
82.1461
80.753
79.4295
78.175
76.9858
75.8574
74.7846
73.7622
72.7845
71.8455
70.9385
70.054
69.1776
68.279
67.29
66.0464
64.1774
61.0487
56.7718
89.9767
90.3936
91.0815
91.6788
91.799
91.2089
89.9673
88.3032
86.4505
84.5721
82.7595
81.4007
80.0967
78.8548
77.6755
76.5558
75.4919
74.4794
73.5132
72.5882
71.6988
70.8383
69.9972
69.1603
68.2961
67.3334
66.105
64.2404
61.1265
56.9433
87.883
88.4068
89.2162
89.9461
90.2036
89.7501
88.6405
87.1012
85.3648
83.5936
81.9275
80.665
79.4491
78.2883
77.1835
76.1329
75.1333
74.1807
73.2706
72.3984
71.5586
70.7447
69.9472
69.1501
68.3204
67.3845
66.1715
64.312
61.2145
57.1254
85.8422
86.4667
87.39
88.2448
88.6326
88.3097
87.3276
85.91
84.2876
82.6221
81.1077
79.9403
78.8117
77.7311
76.7005
75.7185
74.7826
73.8896
73.0354
72.2158
71.4255
70.6583
69.9045
69.1474
68.3524
67.4434
66.2464
64.3929
61.3132
57.3191
83.8501
84.5699
85.6005
86.5731
87.0847
86.8871
86.0282
84.7292
83.2189
81.6579
80.3015
79.2281
78.186
77.1848
76.2276
75.3136
74.4412
73.6071
72.8085
72.041
71.3002
70.5795
69.8695
69.1524
68.3925
67.5107
66.3299
64.4833
61.4233
57.5249
81.9023
82.7131
83.8453
84.9296
85.5589
85.4815
84.742
83.559
82.1591
80.7016
79.5109
78.5305
77.5739
76.6513
75.7667
74.9201
74.1101
73.3346
72.5909
71.8751
71.1833
70.509
69.8425
69.1655
68.4407
67.5862
66.4224
64.5839
61.5454
57.7437
79.9944
80.8931
82.1225
83.313
84.0547
84.0927
83.469
82.3997
81.109
79.7545
78.7388
77.8502
76.9779
76.133
75.3199
74.5395
73.7913
73.0735
72.3838
71.7192
71.0757
70.4473
69.8241
69.187
68.4972
67.6704
66.524
64.6948
61.68
57.9764
78.1213
79.1062
80.4298
81.7224
82.5718
82.7209
82.21
81.2525
80.0701
78.8186
77.9888
77.1906
76.4014
75.6327
74.89
74.1747
73.4868
72.8253
72.1887
71.5743
70.9784
70.3952
69.8146
69.2171
68.5621
67.7631
66.6347
64.8165
61.828
58.2241
76.2789
77.3499
78.7662
80.1579
81.1109
81.3675
80.9665
80.1193
79.045
77.9497
77.266
76.5565
75.8483
75.1545
74.4802
73.8282
73.199
72.5925
72.0074
71.4417
70.8923
70.3532
69.8145
69.256
68.6356
67.8643
66.7546
64.9491
61.9899
58.488
74.4579
75.6186
77.1296
78.6198
79.674
80.035
79.7419
79.0043
78.0385
77.1664
76.5767
75.9535
75.3245
74.7028
74.0948
73.5039
72.9315
72.3778
71.8424
71.3238
70.819
70.3227
69.8248
69.304
68.7175
67.9736
66.8833
65.0927
62.1664
58.7695
72.6598
73.9147
75.5239
77.1128
78.2657
78.728
78.5407
77.9126
77.0562
76.429
75.9301
75.3901
74.8368
74.2843
73.7396
73.2068
72.6882
72.1848
71.6967
71.2229
70.7608
70.3054
69.8463
69.362
68.808
68.091
67.0205
65.2469
62.3578
59.0698
70.851
72.2202
73.9434
75.6396
76.8935
77.4568
77.3758
76.8587
76.1145
75.7503
75.3382
74.8774
74.3958
73.9085
73.4233
72.945
72.4769
72.0205
71.5764
71.1444
70.7223
70.3049
69.882
69.4317
68.9082
68.2166
67.1656
65.4111
62.5643
59.3915
69.0814
70.5755
72.4192
74.2224
75.5723
76.2313
76.2538
75.8482
75.3736
75.1517
74.819
74.4303
74.0141
73.5861
73.155
72.7266
72.3043
71.8906
71.4867
71.0927
70.7066
70.3239
69.9338
69.5142
69.0181
68.3495
67.3171
65.5834
62.7841
59.7331
67.1681
68.8793
70.915
72.8659
74.3316
75.0971
75.2324
74.9478
74.7977
74.6562
74.3967
74.0739
73.7168
73.3419
72.9587
72.5739
72.1917
71.8151
71.4456
71.084
70.7286
70.3749
70.0121
69.6175
69.1435
68.4929
67.4754
65.7622
63.0166
60.1001
65.508
67.4123
69.5929
71.6455
73.1894
74.0385
74.2769
74.2653
74.3944
74.3087
74.1019
73.8273
73.5143
73.1795
72.8332
72.4823
72.1317
71.7846
71.4428
71.1072
70.7766
70.4462
70.1053
69.7305
69.2736
68.6369
67.6318
65.9389
63.2496
60.4689
62.9815
65.5976
68.2819
70.6257
72.3529
73.3547
73.752
74.0031
74.1822
74.1472
73.9858
73.7508
73.4722
73.1673
72.8472
72.5194
72.1891
71.8601
71.5349
71.2145
70.8975
70.5796
70.2497
69.8837
69.4326
68.7984
67.7949
66.116
63.4886
60.8735
62.2762
64.8727
67.4362
69.7551
71.5289
72.6821
73.5752
74.0716
74.2206
74.1611
73.9827
73.7373
73.4534
73.1474
72.8296
72.5066
72.183
71.8623
71.5461
71.2356
70.929
70.6218
70.3025
69.9469
69.5056
68.8811
67.8902
66.2354
63.6643
61.1638
57.2007
63.3948
67.5476
70.419
72.4179
73.6341
74.2389
74.4705
74.4933
74.3805
74.1826
73.9337
73.6541
73.356
73.0472
72.7331
72.4178
72.1044
71.7947
71.4893
71.1864
70.8809
70.5601
70.1986
69.7453
69.1022
68.0912
66.4367
63.9374
61.6388
58.4283
63.6742
67.5317
70.3379
72.2866
73.4998
74.176
74.4856
74.5386
74.4346
74.2414
73.998
73.7252
73.4349
73.1346
72.8295
72.5233
72.2187
71.9172
71.6188
71.3213
71.0187
70.6974
70.3309
69.8665
69.2051
68.1696
66.4934
64.0078
61.8344
61.5405
63.344
65.8279
68.4365
70.642
72.189
73.0824
73.4748
73.5478
73.4523
73.2986
73.133
72.9479
72.7399
72.5129
72.2716
72.021
71.7648
71.5058
71.2452
70.9824
70.7122
70.4228
70.0892
69.6606
69.0396
68.0493
66.4191
63.9763
61.8727
61.6141
63.2908
65.4742
67.8017
69.8476
71.3526
72.2748
72.7256
72.8774
72.9254
72.9008
72.8077
72.6684
72.4975
72.3043
72.0955
71.8757
71.6493
71.4187
71.1853
70.948
70.7021
70.4355
70.1228
69.7128
69.1064
68.1242
66.493
64.05
61.9975
62.322
63.4651
65.2437
67.3257
69.2663
70.7701
71.7464
72.2655
72.4619
72.4618
72.4013
72.3429
72.2394
72.104
71.9457
71.771
71.5845
71.3901
71.1904
70.9867
70.7782
70.5602
70.3208
70.0346
69.65
69.0669
68.1026
66.4802
64.041
62.0227
62.5875
63.5452
65.1124
67.0321
68.8774
70.3483
71.3358
71.8876
72.1228
72.1593
72.135
72.0903
72.0002
71.8802
71.7392
71.5829
71.4158
71.2413
71.0619
70.8786
70.6903
70.4925
70.2728
70.0056
69.6385
69.0692
68.112
66.4856
64.0394
62.0506
62.8422
63.6617
65.0638
66.855
68.6231
70.0636
71.0546
71.6285
71.8919
71.957
71.9262
71.8892
71.8089
71.7004
71.5724
71.4305
71.2786
71.1199
70.9568
70.79
70.6185
70.4372
70.2341
69.9825
69.6291
69.0697
68.1152
66.481
64.0255
62.0622
63.0138
63.7543
65.042
66.738
68.4466
69.8603
70.8494
71.4359
71.7187
71.8044
71.7898
71.7564
71.6818
71.581
71.4621
71.3304
71.1898
71.0432
70.8923
70.7383
70.5797
70.4112
70.2204
69.98
69.6358
69.0812
68.1243
66.4794
64.015
62.0746
63.1545
63.8393
65.0398
66.6613
68.3237
69.7159
70.702
71.2968
71.5928
71.6941
71.6924
71.6609
71.5903
71.4952
71.3835
71.2601
71.1286
70.9916
70.8508
70.7072
70.5589
70.4006
70.2192
69.9872
69.6488
69.0959
68.1364
66.4903
64.0058
62.0872
63.2674
63.9128
65.0453
66.6074
68.2341
69.6102
70.5938
71.1943
71.5001
71.6124
71.6254
71.5946
71.5265
71.4354
71.3293
71.2125
71.0884
70.9593
70.8269
70.6916
70.5517
70.4014
70.2273
70.0011
69.6662
69.1125
68.1631
66.494
63.9943
62.1021
63.3625
63.9777
65.0552
66.5682
68.1666
69.5313
70.5139
71.1191
71.4322
71.5528
71.5791
71.548
71.4813
71.3934
71.2915
71.1799
71.0619
70.9393
70.8138
70.6856
70.5524
70.4085
70.24
70.0181
69.6848
69.1463
68.1829
66.4927
63.9816
62.1187
63.4439
64.0353
65.0667
66.5379
68.1135
69.4705
70.4539
71.0637
71.3827
71.5175
71.5481
71.5163
71.4502
71.3643
71.2656
71.1583
71.0451
70.9279
70.8081
70.6855
70.558
70.4193
70.2551
70.036
69.7164
69.1749
68.1974
66.4879
63.9686
62.1368
63.5149
64.0869
65.0786
66.5133
68.0701
69.4223
70.4081
71.0241
71.3581
71.4995
71.5282
71.4954
71.4294
71.3447
71.2484
71.1443
71.0352
70.9224
70.8073
70.6894
70.5664
70.4317
70.2709
70.0634
69.7476
69.1984
68.2076
66.4804
63.9557
62.1557
63.5777
64.1335
65.0905
66.4924
68.033
69.3829
70.3858
71.0145
71.3491
71.4897
71.5169
71.483
71.4166
71.3325
71.2379
71.1364
71.0302
70.921
70.8097
70.6957
70.5764
70.4452
70.2941
70.0939
69.7746
69.2181
68.2146
66.4712
63.9429
62.175
63.6339
64.176
65.1021
66.4741
68.0005
69.368
70.3759
71.0088
71.3455
71.486
71.5122
71.477
71.4101
71.3262
71.2325
71.1328
71.0292
70.9229
70.8146
70.7038
70.5875
70.4649
70.3222
70.1207
69.798
69.2345
68.2191
66.4606
63.9304
62.1942
63.6846
64.2152
65.1132
66.4575
67.9825
69.353
70.3673
71.0059
71.3456
71.4869
71.5123
71.4762
71.4085
71.3244
71.2315
71.1331
71.0312
70.9271
70.8214
70.7132
70.6046
70.4897
70.3472
70.1445
69.8185
69.2482
68.2214
66.4488
63.918
62.213
63.7308
64.2515
65.124
66.4424
67.9652
69.3378
70.3593
71.0046
71.3485
71.4911
71.5164
71.4792
71.4108
71.3265
71.2338
71.1363
71.0358
70.9336
70.8297
70.7278
70.6263
70.5125
70.37
70.166
69.8365
69.2597
68.222
66.436
63.9057
62.2312
63.7732
64.2854
65.1343
66.4286
67.947
69.3222
70.3516
71.0046
71.3533
71.4981
71.5234
71.4857
71.4163
71.3317
71.2391
71.142
71.0425
70.9416
70.8419
70.7467
70.6465
70.5333
70.3907
70.1854
69.8526
69.2696
68.2212
66.4225
63.8935
62.2489
63.8125
64.3171
65.1444
66.4198
67.9283
69.306
70.3438
71.0052
71.3595
71.507
71.5328
71.4946
71.4245
71.3393
71.2466
71.1499
71.0511
70.9511
70.8587
70.7649
70.6655
70.5529
70.41
70.2033
69.8672
69.2779
68.2191
66.4083
63.8813
62.2657
63.849
64.3471
65.1542
66.4107
67.909
69.2894
70.3359
71.0061
71.3666
71.5172
71.5441
71.5056
71.435
71.3491
71.2561
71.1596
71.0612
70.9659
70.875
70.7823
70.6838
70.5713
70.428
70.2198
69.8806
69.285
68.216
66.3935
63.8692
62.2819
63.8832
64.3755
65.1638
66.4013
67.8895
69.2724
70.3278
71.0073
71.3745
71.5286
71.5568
71.5182
71.4471
71.3608
71.2673
71.1707
71.0726
70.9812
70.8912
70.7991
70.7012
70.5889
70.445
70.2353
69.8928
69.2912
68.2121
66.3782
63.8571
62.2974
63.9155
64.4027
65.1732
66.3919
67.8698
69.2548
70.3192
71.0082
71.3826
71.5408
71.5706
71.5321
71.4606
71.3737
71.28
71.1832
71.0851
70.9966
70.9073
70.8158
70.718
70.6057
70.4613
70.2499
69.9042
69.2964
68.2074
66.3626
63.8452
62.3122
63.946
64.4287
65.1827
66.3825
67.8501
69.237
70.3103
71.0091
71.3908
71.5534
71.5851
71.5472
71.4753
71.3879
71.2937
71.1966
71.1003
71.0122
70.9233
70.8321
70.7347
70.6222
70.4769
70.2639
69.9148
69.3009
68.202
66.3467
63.8333
62.3265
63.975
64.4538
65.192
66.3733
67.8304
69.219
70.3011
71.0097
71.3991
71.5664
71.6003
71.563
71.4909
71.4031
71.3084
71.2111
71.1158
71.0279
70.9393
70.8483
70.7509
70.638
70.492
70.2773
69.9248
69.3049
68.1961
66.3305
63.8216
62.3401
64.0028
64.478
65.2013
66.3642
67.8108
69.2007
70.2913
71.01
71.4074
71.5797
71.6159
71.5793
71.5072
71.4189
71.3239
71.2262
71.1316
71.0438
70.9554
70.8644
70.7668
70.6536
70.5067
70.2902
69.9343
69.3081
68.1897
66.3142
63.8101
62.3533
64.0294
64.5014
65.2107
66.3555
67.7914
69.1822
70.2813
71.01
71.4155
71.5929
71.6318
71.5962
71.5241
71.4355
71.34
71.242
71.1477
71.0599
70.9713
70.8803
70.7826
70.669
70.5211
70.3027
69.9433
69.311
68.1829
66.2977
63.7988
62.366
64.055
64.5242
65.2202
66.3472
67.7722
69.1637
70.2708
71.0096
71.4234
71.6062
71.6479
71.6134
71.5413
71.4525
71.3566
71.2582
71.164
71.0761
70.9875
70.8963
70.7982
70.6841
70.5352
70.3149
69.952
69.3135
68.1757
66.2812
63.7877
62.3783
64.0798
64.5464
65.2297
66.3392
67.7534
69.1449
70.26
71.0088
71.4311
71.6194
71.6642
71.6307
71.559
71.4699
71.3736
71.2747
71.1804
71.0924
71.0036
70.9122
70.8138
70.699
70.549
70.3268
69.9604
69.3156
68.1682
66.2645
63.7768
62.3902
64.1038
64.5681
65.2394
66.3316
67.7348
69.1263
70.249
71.0076
71.4383
71.6324
71.6804
71.6482
71.5768
71.4875
71.3908
71.2917
71.1971
71.1089
71.0198
70.928
70.8293
70.7138
70.5627
70.3385
69.9684
69.3174
68.1605
66.2479
63.7662
62.4018
64.1271
64.5893
65.2491
66.3245
67.7165
69.1075
70.2376
71.0061
71.4454
71.6453
71.6965
71.6659
71.5948
71.5054
71.4084
71.3088
71.2139
71.1253
71.036
70.944
70.8446
70.7285
70.5761
70.3499
69.9762
69.3189
68.1525
66.2314
63.7559
62.4131
64.1497
64.6101
65.2589
66.3178
67.6986
69.0888
70.2259
71.0041
71.4521
71.658
71.7125
71.6835
71.6128
71.5233
71.4261
71.3261
71.2307
71.1418
71.0522
70.9598
70.86
70.7431
70.5896
70.3612
69.9838
69.3201
68.1442
66.2148
63.7458
62.4243
64.1718
64.6305
65.2688
66.3115
67.6812
69.0702
70.214
71.0018
71.4583
71.6703
71.7284
71.701
71.6309
71.5414
71.4438
71.3435
71.2476
71.1584
71.0684
70.9755
70.8752
70.7574
70.6027
70.3723
69.9912
69.3211
68.136
66.1984
63.7361
62.4351
64.1933
64.6506
65.2789
66.3058
67.664
69.0515
70.2018
70.9991
71.4643
71.6824
71.7442
71.7186
71.649
71.5594
71.4616
71.3611
71.2645
71.1749
71.0845
70.9913
70.8903
70.7718
70.6158
70.3832
69.9984
69.3219
68.1275
66.182
63.7266
62.4457
64.2144
64.6703
65.289
66.3004
67.6473
69.033
70.1894
70.9961
71.4699
71.6943
71.7597
71.7358
71.667
71.5775
71.4795
71.3786
71.2814
71.1915
71.1007
71.0069
70.9054
70.7861
70.6288
70.394
70.0054
69.3226
68.1188
66.1658
63.7174
62.4562
64.235
64.6898
65.2992
66.2954
67.631
69.0145
70.1768
70.9926
71.475
71.7058
71.775
71.7531
71.6849
71.5956
71.4974
71.3962
71.2984
71.208
71.1168
71.0225
70.9204
70.8003
70.6417
70.4047
70.0123
69.323
68.1101
66.1497
63.7086
62.4666
64.2552
64.7089
65.3095
66.2909
67.6152
68.9963
70.1641
70.9889
71.48
71.717
71.7901
71.7702
71.7028
71.6135
71.5152
71.4136
71.3154
71.2245
71.1328
71.0382
70.9354
70.8144
70.6545
70.4153
70.0191
69.3233
68.1013
66.1339
63.7
62.4767
64.2751
64.7278
65.3199
66.2868
67.5997
68.9783
70.1511
70.9848
71.4844
71.7279
71.8049
71.7871
71.7206
71.6315
71.533
71.4311
71.3322
71.241
71.1489
71.0537
70.9504
70.8285
70.6672
70.4257
70.0256
69.3234
68.0924
66.118
63.6917
62.4868
64.2946
64.7464
65.3304
66.2832
67.5848
68.9603
70.1381
70.9805
71.4887
71.7385
71.8196
71.8038
71.7382
71.6493
71.5507
71.4486
71.3491
71.2575
71.1649
71.0692
70.9653
70.8424
70.6798
70.4361
70.0321
69.3235
68.0835
66.1024
63.6838
62.4968
64.3137
64.7648
65.3409
66.2799
67.57
68.9425
70.1249
70.9757
71.4924
71.7488
71.834
71.8204
71.7556
71.667
71.5683
71.4659
71.3658
71.2738
71.1808
71.0846
70.98
70.8564
70.6924
70.4464
70.0385
69.3233
68.0745
66.087
63.6761
62.5067
64.3326
64.783
65.3516
66.2771
67.5559
68.9248
70.1116
70.9708
71.4959
71.7587
71.8481
71.8367
71.773
71.6846
71.5858
71.4832
71.3824
71.2901
71.1966
71.0999
70.9947
70.8702
70.7049
70.4566
70.0447
69.3231
68.0653
66.0717
63.6687
62.5164
64.3511
64.801
65.3624
66.2746
67.5421
68.9075
70.0982
70.9655
71.499
71.7685
71.8619
71.8529
71.7902
71.7021
71.6032
71.5005
71.3991
71.3064
71.2125
71.1152
71.0094
70.8839
70.7172
70.4666
70.0508
69.3228
68.0563
66.0566
63.6617
62.5262
64.3694
64.8187
65.3731
66.2725
67.5288
68.8903
70.0848
70.9601
71.5019
71.7777
71.8756
71.8688
71.8072
71.7195
71.6205
71.5175
71.4156
71.3225
71.2282
71.1305
71.024
70.8977
70.7295
70.4766
70.0569
69.3223
68.0471
66.0417
63.6548
62.5359
64.3873
64.8362
65.384
66.2707
67.5158
68.8732
70.0713
70.9542
71.5044
71.7868
71.8888
71.8846
71.824
71.7366
71.6378
71.5345
71.4321
71.3385
71.2439
71.1456
71.0385
70.9113
70.7417
70.4865
70.0627
69.3217
68.038
66.027
63.6483
62.5455
64.4051
64.8536
65.3949
66.2692
67.5032
68.8565
70.0577
70.9483
71.5065
71.7956
71.902
71.9
71.8407
71.7537
71.6549
71.5514
71.4484
71.3546
71.2595
71.1607
71.0529
70.9248
70.7539
70.4963
70.0685
69.3211
68.0288
66.0125
63.6422
62.555
64.4225
64.8708
65.4059
66.2682
67.4911
68.8399
70.0442
70.9421
71.5084
71.804
71.9148
71.9154
71.8572
71.7706
71.6718
71.5683
71.4647
71.3704
71.275
71.1757
71.0674
70.9384
70.7659
70.506
70.0742
69.3203
68.0196
65.998
63.6362
62.5645
64.4397
64.8878
65.4168
66.2673
67.4792
68.8235
70.0305
70.9357
71.5099
71.8122
71.9274
71.9305
71.8736
71.7874
71.6886
71.585
71.481
71.3863
71.2904
71.1906
71.0816
70.9517
70.7779
70.5156
70.0799
69.3194
68.0105
65.9839
63.6305
62.574
64.4568
64.9047
65.4279
66.2669
67.4678
68.8074
70.017
70.9291
71.5113
71.82
71.9397
71.9454
71.8898
71.8041
71.7053
71.6015
71.497
71.4021
71.3057
71.2055
71.0959
70.965
70.7899
70.5252
70.0853
69.3184
68.0012
65.9699
63.6251
62.5835
64.4735
64.9213
65.439
66.2667
67.4567
68.7914
70.0034
70.9222
71.5123
71.8276
71.9518
71.9602
71.9058
71.8206
71.722
71.618
71.513
71.4177
71.3209
71.2203
71.11
70.9784
70.8017
70.5346
70.0908
69.3174
67.992
65.9561
63.6199
62.5928
64.4901
64.9378
65.4501
66.2669
67.4461
68.7757
69.9898
70.9153
71.5131
71.8349
71.9637
71.9746
71.9216
71.837
71.7384
71.6343
71.5289
71.4332
71.3361
71.235
71.1241
70.9915
70.8135
70.5441
70.096
69.3163
67.9828
65.9425
63.6149
62.6023
64.5065
64.9541
65.4612
66.2672
67.4357
68.7603
69.9761
70.9081
71.5136
71.8419
71.9753
71.989
71.9373
71.8533
71.7548
71.6506
71.5447
71.4487
71.3512
71.2496
71.1382
71.0046
70.8252
70.5533
70.1012
69.315
67.9736
65.9291
63.6102
62.6117
64.5226
64.9704
65.4724
66.2683
67.4257
68.745
69.9625
70.9008
71.5139
71.8487
71.9866
72.0031
71.9527
71.8694
71.7709
71.6667
71.5606
71.4641
71.3662
71.2642
71.1521
71.0177
70.8368
70.5625
70.1063
69.3137
67.9644
65.9159
63.6058
62.621
64.5386
64.9864
65.4836
66.2695
67.4161
68.73
69.9489
70.8933
71.5138
71.8553
71.9977
72.017
71.9681
71.8853
71.787
71.6828
71.5764
71.4794
71.3811
71.2787
71.1659
71.0307
70.8483
70.5716
70.1113
69.3123
67.9551
65.9028
63.6016
62.6303
64.5543
65.0023
65.4948
66.2711
67.4068
68.7153
69.9354
70.8857
71.5137
71.8615
72.0086
72.0307
71.9834
71.901
71.803
71.6987
71.5921
71.4946
71.396
71.2931
71.1797
71.0435
70.8598
70.5806
70.1163
69.3108
67.9459
65.89
63.5976
62.6397
64.5699
65.018
65.506
66.2729
67.3977
68.7007
69.9219
70.878
71.5131
71.8675
72.0193
72.0442
71.9983
71.9168
71.8189
71.7144
71.6079
71.5097
71.4108
71.3074
71.1935
71.0565
70.8712
70.5896
70.1211
69.3093
67.9367
65.8773
63.5939
62.6489
64.5853
65.0336
65.5173
66.2748
67.3891
68.6864
69.9084
70.8701
71.5125
71.8732
72.0297
72.0575
72.0131
71.9323
71.8346
71.7302
71.6233
71.5248
71.4255
71.3217
71.2071
71.0692
70.8825
70.5985
70.1258
69.3076
67.9275
65.8648
63.5903
62.6583
64.6005
65.0491
65.5285
66.2769
67.3807
68.6723
69.895
70.8621
71.5116
71.8788
72.0399
72.0707
72.0279
71.9477
71.8502
71.7458
71.6388
71.5397
71.4401
71.3359
71.2207
71.082
70.8938
70.6073
70.1305
69.306
67.9183
65.8524
63.5869
62.6676
64.6156
65.0644
65.5397
66.2794
67.3727
68.6584
69.8816
70.8539
71.5104
71.8841
72.05
72.0837
72.0425
71.963
71.8658
71.7613
71.6542
71.5546
71.4547
71.35
71.2343
71.0946
70.905
70.616
70.135
69.3041
67.9091
65.8403
63.5838
62.6769
64.6305
65.0796
65.551
66.2819
67.3649
68.6448
69.8684
70.8457
71.5092
71.8892
72.0597
72.0964
72.0568
71.9781
71.8812
71.7766
71.6694
71.5694
71.4691
71.3641
71.2478
71.1071
70.9161
70.6246
70.1394
69.3022
67.9
65.8282
63.5809
62.6862
64.6452
65.0947
65.5622
66.2847
67.3575
68.6314
69.8551
70.8374
71.5077
71.8939
72.0694
72.109
72.0711
71.9931
71.8965
71.7919
71.6845
71.5841
71.4835
71.378
71.2612
71.1196
70.9271
70.6332
70.1438
69.3004
67.8909
65.8165
63.5782
62.6955
64.6598
65.1096
65.5735
66.2875
67.3503
68.6182
69.842
70.829
71.5059
71.8985
72.0787
72.1214
72.0852
72.008
71.9116
71.8071
71.6996
71.5988
71.4978
71.3919
71.2745
71.132
70.9381
70.6416
70.1481
69.2983
67.8818
65.8048
63.5757
62.7048
64.6742
65.1244
65.5847
66.2906
67.3434
68.6053
69.8289
70.8205
71.504
71.903
72.0878
72.1336
72.0991
72.0228
71.9267
71.8222
71.7146
71.6133
71.512
71.4057
71.2877
71.1444
70.949
70.65
70.1523
69.2962
67.8727
65.7934
63.5733
62.7141
64.6885
65.1391
65.5959
66.2939
67.3367
68.5925
69.8159
70.8119
71.502
71.9072
72.0967
72.1457
72.1129
72.0373
71.9416
71.8372
71.7295
71.6278
71.5262
71.4195
71.3009
71.1567
70.9598
70.6582
70.1564
69.2941
67.8637
65.7821
63.5712
62.7234
64.7026
65.1537
65.6072
66.2972
67.3303
68.58
69.8029
70.8032
71.4997
71.9111
72.1056
72.1576
72.1265
72.052
71.9564
71.852
71.7443
71.6422
71.5404
71.4332
71.314
71.169
70.9705
70.6665
70.1603
69.2918
67.8546
65.771
63.5691
62.7327
64.7166
65.1681
65.6183
66.3008
67.3243
68.5677
69.7901
70.7945
71.4972
71.9148
72.1141
72.1692
72.1401
72.0663
71.9712
71.8668
71.7589
71.6565
71.5543
71.4469
71.3271
71.1811
70.9812
70.6746
70.1642
69.2895
67.8456
65.76
63.5673
62.742
64.7304
65.1825
65.6295
66.3045
67.3184
68.5557
69.7773
70.7857
71.4947
71.9185
72.1225
72.1809
72.1534
72.0806
71.9858
71.8816
71.7736
71.6708
71.5683
71.4605
71.3401
71.1932
70.9919
70.6826
70.1681
69.2872
67.8366
65.7492
63.5657
62.7513
64.7442