# vtk DataFile Version 2.0
track0
ASCII
DATASET POLYDATA
POINTS 12278 float
-0.0205 0.001 1e-05
-0.02052 0.000999216 1e-05
-0.02054 0.000998592 1e-05
-0.02056 0.000998126 1e-05
-0.02058 0.000997818 1e-05
-0.0206 0.000997665 1e-05
-0.0205 0.00367778 1e-05
-0.02052 0.00367703 1e-05
-0.02054 0.00367643 1e-05
-0.02056 0.00367599 1e-05
-0.02058 0.00367569 1e-05
-0.0206 0.00367554 1e-05
-0.0205 0.00635556 1e-05
-0.02052 0.00635527 1e-05
-0.02054 0.00635505 1e-05
-0.02056 0.00635488 1e-05
-0.02058 0.00635476 1e-05
-0.0206 0.00635471 1e-05
-0.0205 0.00903333 1e-05
-0.02052 0.00903311 1e-05
-0.02054 0.00903293 1e-05
-0.02056 0.0090328 1e-05
-0.02058 0.00903271 1e-05
-0.0206 0.00903266 1e-05
-0.0205 0.0117111 1e-05
-0.02052 0.0117111 1e-05
-0.02054 0.011711 1e-05
-0.02056 0.011711 1e-05
-0.02058 0.011711 1e-05
-0.0206 0.011711 1e-05
-0.0205 0.0143889 1e-05
-0.02052 0.014389 1e-05
-0.02054 0.014389 1e-05
-0.02056 0.0143891 1e-05
-0.02058 0.0143891 1e-05
-0.0206 0.0143891 1e-05
-0.0205 0.0170667 1e-05
-0.02052 0.017067 1e-05
-0.02054 0.0170672 1e-05
-0.02056 0.0170674 1e-05
-0.02058 0.0170675 1e-05
-0.0206 0.0170676 1e-05
-0.0205 0.0197444 1e-05
-0.02052 0.019745 1e-05
-0.02054 0.0197454 1e-05
-0.02056 0.0197457 1e-05
-0.02058 0.0197459 1e-05
-0.0206 0.019746 1e-05
-0.0205 0.0224222 1e-05
-0.02052 0.022423 1e-05
-0.02054 0.0224236 1e-05
-0.02056 0.0224241 1e-05
-0.02058 0.0224244 1e-05
-0.0206 0.0224245 1e-05
-0.0205 0.0251 1e-05
-0.02052 0.0251003 1e-05
-0.02054 0.0251005 1e-05
-0.02056 0.0251007 1e-05
-0.02058 0.0251008 1e-05
-0.0206 0.0251008 1e-05
-0.0205 0.001 1e-05
-0.0203632 0.00100536 1e-05
-0.0202266 0.00101331 1e-05
-0.0200901 0.00102296 1e-05
-0.0200427 0.00102682 1e-05
-0.0198376 0.00104418 1e-05
-0.0196338 0.00107322 1e-05
-0.0194327 0.00111734 1e-05
-0.0192368 0.00118024 1e-05
-0.0190172 0.00124951 1e-05
-0.0189002 0.00128348 1e-05
-0.0187827 0.00131598 1e-05
-0.0186649 0.001347 1e-05
-0.0185469 0.001377 1e-05
-0.0183807 0.00141936 1e-05
-0.0182041 0.00146458 1e-05
-0.0180267 0.00150692 1e-05
-0.0178487 0.0015464 1e-05
-0.0176703 0.00158389 1e-05
-0.0174976 0.00161991 1e-05
-0.0172846 0.00166394 1e-05
-0.0170715 0.00170741 1e-05
-0.0168583 0.00175029 1e-05
-0.0166449 0.00179219 1e-05
-0.0163945 0.00184007 1e-05
-0.0163234 0.00185324 1e-05
-0.0162522 0.00186629 1e-05
-0.016181 0.00187921 1e-05
-0.0161097 0.00189201 1e-05
-0.0160387 0.0019046 1e-05
-0.0157586 0.0019535 1e-05
-0.0154779 0.00199931 1e-05
-0.0151968 0.00204225 1e-05
-0.0149154 0.00208283 1e-05
-0.0146381 0.00212134 1e-05
-0.0143838 0.00215527 1e-05
-0.0141293 0.00218766 1e-05
-0.0138747 0.00221855 1e-05
-0.0136198 0.00224797 1e-05
-0.0132934 0.00228369 1e-05
-0.0132791 0.00228515 1e-05
-0.0132648 0.0022866 1e-05
-0.0132504 0.00228805 1e-05
-0.0132361 0.0022895 1e-05
-0.0132214 0.00229098 1e-05
-0.0129776 0.00231543 1e-05
-0.0127337 0.00233865 1e-05
-0.0124897 0.00236061 1e-05
-0.0122456 0.0023813 1e-05
-0.0120025 0.00240058 1e-05
-0.0117547 0.00241909 1e-05
-0.0115067 0.00243627 1e-05
-0.0112587 0.00245231 1e-05
-0.0110106 0.00246734 1e-05
-0.0107632 0.00248136 1e-05
-0.0105252 0.00249391 1e-05
-0.0102872 0.00250547 1e-05
-0.0100491 0.00251602 1e-05
-0.00981105 0.00252575 1e-05
-0.00957337 0.00253472 1e-05
-0.00934491 0.00254261 1e-05
-0.00911643 0.00254974 1e-05
-0.00888792 0.00255611 1e-05
-0.0086594 0.00256172 1e-05
-0.00843108 0.00256669 1e-05
-0.00821175 0.00257085 1e-05
-0.00799241 0.00257439 1e-05
-0.00777306 0.00257731 1e-05
-0.0075537 0.00257953 1e-05
-0.00733443 0.00258115 1e-05
-0.00712387 0.00258213 1e-05
-0.0069133 0.00258256 1e-05
-0.00670273 0.00258244 1e-05
-0.00649216 0.00258163 1e-05
-0.0062816 0.00258018 1e-05
-0.00607944 0.0025782 1e-05
-0.0058773 0.00257566 1e-05
-0.00567516 0.00257258 1e-05
-0.00547303 0.00256876 1e-05
-0.00527083 0.0025642 1e-05
-0.00507675 0.00255914 1e-05
-0.00488269 0.00255344 1e-05
-0.00468865 0.00254712 1e-05
-0.00449464 0.00253999 1e-05
-0.00430044 0.00253192 1e-05
-0.00411412 0.00252331 1e-05
-0.00392784 0.0025139 1e-05
-0.00374159 0.0025037 1e-05
-0.0035554 0.00249257 1e-05
-0.00336883 0.00248018 1e-05
-0.00318995 0.00246714 1e-05
-0.00301115 0.00245302 1e-05
-0.00283245 0.00243777 1e-05
-0.00265386 0.00242123 1e-05
-0.00247443 0.00240317 1e-05
-0.0023027 0.00238428 1e-05
-0.00213114 0.00236387 1e-05
-0.00195982 0.00234157 1e-05
-0.00178875 0.00231741 1e-05
-0.00161577 0.00229108 1e-05
-0.00161564 0.00229106 1e-05
-0.00161551 0.00229104 1e-05
-0.00161538 0.00229102 1e-05
-0.00161525 0.002291 1e-05
-0.00161512 0.00229098 1e-05
-0.00145038 0.00226408 1e-05
-0.00128604 0.00223482 1e-05
-0.00112213 0.00220327 1e-05
-0.00095866 0.00216949 1e-05
-0.000791418 0.00213239 1e-05
-0.000633135 0.00209428 1e-05
-0.000475556 0.00205336 1e-05
-0.000318719 0.00200967 1e-05
-0.000162834 0.0019627 1e-05
0 0.00190955 1e-05
3.73602e-05 0.00189635 1e-05
7.46203e-05 0.00188286 1e-05
0.000111782 0.0018691 1e-05
0.000148846 0.00185509 1e-05
0.000179168 0.00184338 1e-05
0.000249012 0.00181595 1e-05
0.000318445 0.00178749 1e-05
0.000387453 0.00175802 1e-05
0.000456022 0.00172754 1e-05
0.000528387 0.00169417 1e-05
0.000634886 0.00164319 1e-05
0.000740278 0.00158996 1e-05
0.00084451 0.0015345 1e-05
0.00094762 0.00147697 1e-05
0.00101995 0.00143469 1e-05
0.00102814 0.00142974 1e-05
0.00103632 0.00142478 1e-05
0.00104448 0.0014198 1e-05
0.00105264 0.00141481 1e-05
0.00106088 0.00140974 1e-05
0.00116821 0.00134356 1e-05
0.00127404 0.001275 1e-05
0.00137827 0.00120405 1e-05
0.00148099 0.00113092 1e-05
0.00159676 0.00104511 1e-05
0.00159691 0.00104499 1e-05
0.00159706 0.00104487 1e-05
0.00159721 0.00104475 1e-05
0.00159737 0.00104464 1e-05
0.00159752 0.00104452 1e-05
0.0016922 0.000970939 1e-05
0.00178548 0.000895593 1e-05
0.00187727 0.000818448 1e-05
0.00196765 0.000739648 1e-05
0.00203805 0.000676367 1e-05
0.00205811 0.000657887 1e-05
0.00207808 0.000639317 1e-05
0.00209797 0.000620658 1e-05
0.0021178 0.000601936 1e-05
0.00213833 0.000582432 1e-05
0.00219147 0.000531605 1e-05
0.00224412 0.00048026 1e-05
0.00229625 0.00042839 1e-05
0.00234785 0.00037599 1e-05
0.00239415 0.000328255 1e-05
0.00245199 0.000267804 1e-05
0.00250919 0.000206753 1e-05
0.00256577 0.00014512 1e-05
0.00262183 8.30199e-05 1e-05
0.00268334 1.37094e-05 1e-05
0.00268572 1.09675e-05 1e-05
0.00268811 8.22462e-06 1e-05
0.00269049 5.4807e-06 1e-05
0.00269287 2.73575e-06 1e-05
0.00269525 0 1e-05
0.00275914 -7.37368e-05 1e-05
0.00282242 -0.000148005 1e-05
0.00288506 -0.000222813 1e-05
0.00294704 -0.000298173 1e-05
0.00300411 -0.000368654 1e-05
0.0030498 -0.000425923 1e-05
0.00309519 -0.000483437 1e-05
0.00314027 -0.000541193 1e-05
0.0031851 -0.000599145 1e-05
0.00323259 -0.000661108 1e-05
0.00325064 -0.000684905 1e-05
0.00326865 -0.000708742 1e-05
0.0032866 -0.000732619 1e-05
0.00330449 -0.000756536 1e-05
0.00332205 -0.00078009 1e-05
0.00339019 -0.000871877 1e-05
0.00345773 -0.000964107 1e-05
0.00352465 -0.00105679 1e-05
0.00359102 -0.00114986 1e-05
0.00365389 -0.00123896 1e-05
0.00368033 -0.00127684 1e-05
0.0037067 -0.00131477 1e-05
0.00373299 -0.00135275 1e-05
0.00375923 -0.00139077 1e-05
0.00378611 -0.00142983 1e-05
0.0038301 -0.00149396 1e-05
0.00387387 -0.00155823 1e-05
0.00391743 -0.00162266 1e-05
0.00396076 -0.00168723 1e-05
0.00400292 -0.00175044 1e-05
0.00407112 -0.00185326 1e-05
0.00413891 -0.00195636 1e-05
0.00420627 -0.00205973 1e-05
0.00427334 -0.0021633 1e-05
0.00434393 -0.00227296 1e-05
0.00434998 -0.00228243 1e-05
0.00435603 -0.0022919 1e-05
0.00436208 -0.00230137 1e-05
0.00436812 -0.00231085 1e-05
0.00437414 -0.0023203 1e-05
0.00445499 -0.00244725 1e-05
0.00453538 -0.00257449 1e-05
0.00461538 -0.00270197 1e-05
0.00469502 -0.00282968 1e-05
0.00477289 -0.00295498 1e-05
0.00479953 -0.00299799 1e-05
0.00482615 -0.00304102 1e-05
0.00485273 -0.00308407 1e-05
0.00487931 -0.00312712 1e-05
0.00490609 -0.00317049 1e-05
0.00496673 -0.00326872 1e-05
0.00502721 -0.00336704 1e-05
0.00508755 -0.00346545 1e-05
0.00514775 -0.00356395 1e-05
0.0052074 -0.00366161 1e-05
0.00526045 -0.00374852 1e-05
0.00531345 -0.00383545 1e-05
0.00536641 -0.00392241 1e-05
0.0054194 -0.00400935 1e-05
0.00547262 -0.00409655 1e-05
0.00551559 -0.00416687 1e-05
0.00555853 -0.0042372 1e-05
0.00560143 -0.00430755 1e-05
0.00564432 -0.00437792 1e-05
0.00568714 -0.00444811 1e-05
0.00575842 -0.00456487 1e-05
0.00582975 -0.0046816 1e-05
0.00590113 -0.00479829 1e-05
0.00597264 -0.00491491 1e-05
0.00604356 -0.00503009 1e-05
0.0060798 -0.00508872 1e-05
0.00611606 -0.00514735 1e-05
0.00615232 -0.00520597 1e-05
0.0061886 -0.00526458 1e-05
0.00622499 -0.00532326 1e-05
0.00630378 -0.00545005 1e-05
0.00638276 -0.00557672 1e-05
0.00646193 -0.00570327 1e-05
0.00654138 -0.00582966 1e-05
0.00661893 -0.00595222 1e-05
0.00666281 -0.00602111 1e-05
0.00670674 -0.00608998 1e-05
0.00675073 -0.0061588 1e-05
0.0067948 -0.00622758 1e-05
0.00683925 -0.00629671 1e-05
0.00691115 -0.00640816 1e-05
0.00698331 -0.00651945 1e-05
0.00705573 -0.00663056 1e-05
0.00712844 -0.00674149 1e-05
0.00719878 -0.006848 1e-05
0.00726943 -0.0069542 1e-05
0.00734031 -0.00706026 1e-05
0.00741141 -0.00716617 1e-05
0.00748282 -0.00727187 1e-05
0.00755576 -0.00737909 1e-05
0.00760123 -0.00744545 1e-05
0.00764684 -0.00751173 1e-05
0.00769257 -0.00757792 1e-05
0.00773843 -0.00764401 1e-05
0.00778313 -0.0077081 1e-05
0.00790091 -0.00787609 1e-05
0.00801946 -0.00804353 1e-05
0.00813878 -0.00821042 1e-05
0.0082591 -0.0083766 1e-05
0.00837203 -0.00853052 1e-05
0.00837967 -0.00854079 1e-05
0.00838732 -0.00855107 1e-05
0.00839496 -0.00856133 1e-05
0.00840261 -0.0085716 1e-05
0.00841029 -0.00858189 1e-05
0.00852133 -0.00873063 1e-05
0.0086332 -0.00887876 1e-05
0.00874591 -0.00902625 1e-05
0.00885949 -0.00917307 1e-05
0.00896551 -0.00930825 1e-05
0.00903003 -0.00938947 1e-05
0.00909482 -0.00947047 1e-05
0.00915987 -0.00955126 1e-05
0.00922523 -0.00963181 1e-05
0.00929275 -0.00971438 1e-05
0.00934692 -0.0097801 1e-05
0.00940128 -0.00984566 1e-05
0.00945585 -0.00991106 1e-05
0.00951061 -0.00997629 1e-05
0.0095636 -0.010039 1e-05
[...]
POINT_DATA 12278
 FIELD attributes 2
p 1 12278 float
177015 177097 177169 177232 177286 177331
108948 108966 108983 108997 109009 109019
87754.8 87764.4 87773.7 87782.9 87791.9 87800.3
79937.1 79943.4 79949.6 79955.8 79961.8 79967.8
77146.2 77155.4 77164.6 77173.9 77183.1 77192.3
77563.6 77577.2 77590.7 77604.3 77617.9 77631.4
81096.8 81109.2 81121.4 81133.5 81145.5 81157.2
90923.3 90943 90962 90980.3 90997.9 91014.8
117355 117388 117418 117447 117473 117496
215474 215284 215092 214898 214702 214504
177015 173409 169082 164504 162838 158906 155523 152873 144707 134666 129224 123795 119857 119246 118394 112349 106449 102328 101432 100565 99583.1 98600.9 97174.3 95706 93990.4 93623.9 93256.9 92889.3 92408.3 91910.6 89991.1 88187.1 86673.2 85885.8 85109.1 84423.3 83758.5 83108.7 82456.9 81623 81588.1 81559.2 81531.1 81503.1 81474.3 80941.5 80409.2 79877.4 79346.1 78921 78494.8 78085.6 77687.9 77312.3 76946.4 76596.4 76246.1 75922.4 75620.9 75319.8 75030.4 74740.7 74462.2 74199.4 73936.8 73683.1 73429.4 73179.3 72943.1 72707.1 72478.2 72249.3 72018.7 71799.3 71580.1 71366.4 71152.9 70934.2 70723.4 70512.7 70305.6 70098.7 69885.7 69673.3 69461.1 69249.2 69037.7 68822.6 68594.5 68366.9 68134 67898.3 67654.3 67401.6 67135.7 66855.4 66541.7 66229.5 65918.9 65605.9 65605.6 65605.3 65604.9 65604.6 65604.2 65213.1 64827.6 64447.8 64049.8 63569.8 63054.3 62544.6 61843.6 61070.5 60257.4 60009.1 59771 59543.8 59317.3 59131.9 58575.1 58016.2 57455.2 56982 56513.8 55909.2 55306.5 54766.8 54225.7 53840.9 53782.8 53724.7 53669.5 53621.9 53573.8 53020.6 52460.3 51942.3 51470 50924.3 50923.3 50922.4 50921.5 50920.8 50920 50492.9 50058.2 49655.7 49320.2 49051.2 48952 48852.4 48781.6 48712 48639.4 48450.9 48260.1 48067.4 47923 47790.9 47618.2 47449.6 47310 47168.3 47009 47002.6 46996.1 46989.7 46983.8 46978.3 46873 46760.7 46646 46532.7 46425.8 46390.2 46353.5 46313.9 46273.6 46229.8 46209.6 46189.4 46168.9 46147.7 46126.6 46101.3 46074.5 46037.5 45995.1 45953.6 45956 45958.2 45957.5 45956.6 45955.7 45944.4 45932.7 45920.5 45905.5 45890.3 45900.1 45909.2 45913.7 45917.7 45921.4 45920.5 45919.7 45918.8 45917.8 45916.7 45930.2 45943.8 45956.5 45967.2 45977.5 45987.8 45998 46007.8 46017.5 46027.3 46038.8 46050.2 46061.4 46072.5 46083.4 46101.8 46120.3 46138.7 46157.2 46175.8 46184.4 46192.9 46201.6 46210.7 46219.8 46242.5 46265.2 46288.6 46312.5 46336.3 46343.7 46351 46358.8 46367 46375.3 46398.5 46421.8 46446 46471.2 46496 46504.9 46513.8 46523.5 46533.7 46544 46563.6 46583.4 46603.8 46625.7 46646.9 46660.8 46674.7 46690.4 46706.7 46723.4 46734.9 46746.5 46758.2 46770.9 46783.2 46805.2 46827.3 46852.8 46879 46904.9 46906 46907.1 46908.4 46909.8 46911.2 46932.4 46953.8 46975.6 46999.4 47021.8 47031.3 47040.9 47051.9 47063 47074.4 47084.1 47093.8 47103.6 47114.1 47124.2 47141.4 47158.7 47177.7 47197.5 47216.9 47219.4 47222 47225 47227.9 47230.9 47245.2 47259.7 47274.2 47289.8 47304.7 47318.5 47332.7 47348.1 47363.7 47380.6 47380.6 47380.7 47380.8 47380.9 47381 47395.6 47410.3 47425.2 47441.1 47456.3 47468.3 47480.9 47494.5 47508.2 47521.3 47521.9 47522.5 47523.2 47523.9 47524.6 47536.3 47548.2 47560.1 47572.7 47585.2 47595.5 47605.9 47617.5 47629.7 47641.7 47645.7 47650.1 47654.7 47659.4 47664.2 47670.1 47676 47681.9 47688 47694.4 47703.2 47712.3 47722.1 47733 47743.4 47751 47759.1 47768 47777 47786.1 47788.2 47790.7 47793.2 47795.7 47798.3 47803.7 47809.1 47814.5 47820 47826.1 47832.3 47838.8 47845.7 47853.8 47861.6 47866.7 47871.7 47878 47884.6 47891.3 47894.9 47899.6 47904.2 47908.9 47914.2 47914.4 47914.7 47914.9 47915.2 47915.5 47919.6 47923.7 47927.9 47932 47937.1 47939.4 47941.9 47944.9 47948.8 47952.6 47953.8 47954.9 47956.8 47959.6 47962.2 47962.2 47962.7 47963.6 47964.4 47965.9 47965 47964.8 47964.5 47964.2 47963.8 47963.8 47963.7 47963.7 47963.7 47963.7 47962.4 47961 47959.7 47958.3 47957.5 47954.3 47951.8 47949.2 47946.9 47945.1 47940.7 47936.4 47932.7 47929.6 47926.6 47921.1 47915.5 47910.6 47906.3 47902 47895.4 47888.8 47882.7 47877 47871.6 47863.8 47856.4 47849.2 47841.9 47835.3 47826.5 47818.2 47809.8 47801.4 47793.3 47784.7 47776.3 47767.8 47759.4 47749.5 47748.8 47748 47747.3 47746.5 47745.8 47735.3 47724.9 47714.4 47703.9 47693.6 47681.9 47670.4 47658.9 47647.4 47636.1 47623.1 47610.6 47598.1 47585.6 47573.3 47559.4 47545.7 47532.3 47518.9 47505.6 47490.7 47476 47461.6 47447.3 47433 47417.3 47401.6 47386.3 47371.1 47355.9 47339.3 47322.8 47306.5 47290.4 47274.4 47257 47239.7 47222.5 47205.5 47188.6 47170.5 47152.4 47134.4 47116.6 47098.9 47080.1 47061.3 47042.4 47023.9 47005.4 46985.9 46966.4 46946.9 46927.5 46908.3 46888.2 46868 46847.8 46827.8 46807.8 46787.1 46766.3 46745.5 46724.7 46704.2 46682.9 46661.5 46640 46618.6 46597.5 46575.6 46553.6 46531.6 46509.7 46487.9 46465.6 46443 46420.5 46398 46375.7 46352.8 46329.8 46306.8 46283.8 46261 46237.6 46214.1 46190.7 46167.2 46143.9 46120.1 46096.2 46072.3 46048.3 46024.5 46000.3 45976 45951.7 45927.4 45903.1 45878.6 45853.9 45829.1 45804.4 45779.8 45754.8 45729.8 45704.7 45679.6 45654.6 45629.3 45603.9 45578.5 45553.1 45527.7 45502.1 45476.4 45450.7 45424.9 45399.3 45373.3 45347.3 45321.3 45295.2 45269.2 45243 45216.7 45190.4 45164.1 45137.8 45111.3 45084.7 45058.1 45031.6 45005 44978.2 44951.4 44924.6 44897.8 44871 44843.9 44816.9 44789.8 44762.8 44735.7 44708.5 44681.2 44653.9 44626.6 44599.3 44571.8 44544.3 44516.8 44489.3 44461.8 44434.1 44406.4 44378.7 44351 44323.3 44295.4 44267.5 44239.5 44211.6 44183.7 44155.6 44127.5 44099.4 44071.3 44043.2 44014.9 43986.6 43958.3 43930 43901.7 43873.3 43844.8 43816.3 43787.8 43759.4 43730.7 43702.1 43673.4 43644.7 43616.1 43587.3 43558.4 43529.6 43500.8 43471.9 43443 43413.9 43384.9 43355.9 43326.9 43297.8 43268.6 43239.4 43210.2 43181 43151.7 43122.4 43093 43063.7 43034.3 43004.8 42975.3 42945.8 42916.2 42886.7 42857 42827.3 42797.7 42768 42738.3 42708.4 42678.6 42648.7 42618.8 42589 42558.9 42528.9 42498.9 42468.8 42438.8 42408.6 42378.4 42348.2 42318 42287.7 42257.4 42227 42196.6 42166.2 42135.8 42105.3 42074.7 42044.1 42013.6 41983 41952.3 41921.5 41890.7 41860 41829.2 41798.3 41767.4 41736.5 41705.5 41674.5 41643.5 41612.3 41581.2 41550.1 41518.9 41487.7 41456.3 41425 41393.7 41362.4 41330.9 41299.4 41267.9 41236.4 41204.8 41173.2 41141.4 41109.7 41078 41046.3 41014.4 40982.5 40950.6 40918.7 40886.7 40854.6 40822.5 40790.4 40758.3 40726.1 40693.8 40661.5 40629.2 40596.9 40564.5 40532 40499.4 40466.9 40434.4 40401.8 40369.1 40336.3 40303.5 40270.8 40237.9 40205 40172 40139.1 40106.1 40073 40039.9 40006.7 39973.5 39940.2 39907 39873.6 39840.2 39806.7 39773.3 39739.8 39706.2 39672.5 39638.8 39605.1 39571.4 39537.5 39503.6 39469.7 39435.8 39401.8 39367.7 39333.6 39299.4 39265.3 39231.1 39196.7 39162.3 39127.9 39093.5 39059 39024.5 38989.8 38955.2 38920.5 38885.8 38851 38816.1 38781.2 38746.3 38711.3 38676.2 38641 38605.9 38570.7 38535.5 38500.1 38464.7 38429.3 38393.9 38358.4 38322.8 38287.1 38251.4 38215.7 38180 38144.1 38108.2 38072.2 38036.3 38000.2 37964.1 37927.9 37891.7 37855.4 37819.1 37782.7 37746.2 37709.7 37673.2 37636.7 37600 37563.2 37526.5 37489.7 37452.8 37415.9 37378.8 37341.8 37304.7 37267.6 37230.3 37193 37155.7 37118.3 37080.9 37043.4 37005.8 36968.2 36930.5 36892.8 36855 36817.1 36779.2 36741.3 36703.3 36665.2 36627 36588.8 36550.6 36512.3 36473.9 36435.5 36397 36358.5 36319.9 36281.2 36242.4 36203.7 36164.8 36126 36087 36047.9 36008.8 35969.7 35930.5 35891.2 35851.9 35812.5 35773.1 35733.6 35694 35654.3 35614.6 35574.9 35535.1 35495.2 35455.2 35415.2 35375.2 35335.1 35294.9 35254.6 35214.3 35173.9 35133.5 35093 35052.4 35011.8 34971.1 34930.4 34889.6 34848.7 34807.7 34766.7 34725.7 34684.5 34643.3 34602.1 34560.8 34519.4 34477.9 34436.4 34394.8 34353.2 34311.5 34269.7 34227.9 34186 34144 34102 34059.9 34017.7 33975.5 33933.2 33890.9 33848.4 33805.9 33763.3 33720.7 33678.1 33635.3 33592.4 33549.5 33506.6 33463.6 33420.5 33377.3 33334.1 33290.8 33247.5 33204 33160.5 33117 33073.3 33029.7 32985.9 32942.1 32898.2 32854.2 32810.2 32766 32721.9 32677.6 32633.3 32589 32544.5 32500 32455.4 32410.7 32366.1 32321.2 32276.4 32231.4 32186.4 32141.4 32096.2 32051 32005.7 31960.4 31915 31869.4 31823.9 31778.3 31732.5 31686.8 31640.9 31595 31549 31502.9 31456.9 31410.6 31364.3 31318 31271.6 31225.1 31178.5 31131.9 31085.2 31038.4 30991.6 30944.6 30897.6 30850.5 30803.4 30756.2 30708.9 30661.5 30614 30566.5 30519 30471.3 30423.5 30375.7 30327.8 30280 30231.9 30183.7 30135.6 30087.3 30039 29990.6 29942.1 29893.5 29844.9 29796.2 29747.4 29698.5 29649.6 29600.6 29551.5 29502.3 29453 29403.7 29354.3 29304.9 29255.3 29205.7 29155.9 29106.2 29056.4 29006.3 28956.3 28906.2 28856 28805.9 28755.4 28705 28654.5 28604 28553.4 28502.6 28451.7 28400.9 28349.9 28298.9 28247.7 28196.5 28145.2 28093.8 28042.4 27990.8 27939.2 27887.5 27835.7 27783.9 27731.8 27679.8 27627.7 27575.5 27523.3 27470.8 27418.4 27365.8 27313.2 27260.6 27207.7 27154.8 27101.9 27048.9 26995.8 26942.5 26889.2 26835.8 26782.4 26728.9 26675.2 26621.5 26567.7 26513.8 26459.9 26405.8 26351.6 26297.4 26243.1 26188.8 26134.2 26079.6 26025 25970.3 25915.6 25860.7 25805.7 25750.7 25695.6 25640.5 25585.2 25529.8 25474.5 25419.1 25363.7 25308.1 25252.4 25196.8 25141.2 25085.5 25029.7 24973.9 24918.1 24862.4 24806.7 24750.8 24695 24639.3 24583.6 24528 24472.2 24417 24361.8 24306.8 24252.1 24197.4 24142.4 24087.4 24032.4 23977 23922.3 23873.7 23825 23776.4 23732.6 23683.5 23618.1 23552.7 23487.1 23412.7 23361.5 23331.1 23301 23271.3 23257 23252.9 23248.7 23244.6 23240.4 23238.9 23236.2 23231 23225.7 23220.5 23214.7 23187.8 23160.6 23133.1 23105.4 23061.8 22985.9 22916.9 22848 22779.2 22722.9 22671.7 22615.4 22559.1 22502.7 22440 22372.3 22304.2 22236.1 22168 22099.5 22028.2 21955 21881.8 21808.5 21733.2 21655 21575.2 21495.4 21415.6 21334.2 21249.9 21163.7 21077.6 20991.4 20903.5 20812.5 20719.5 20626.6 20533.5 20438.7 20340.7 20240.4 20140.1 20039.7 19937.4 19831.5 19723.3 19615 19506.6 19396.2 19281.8 19164.8 19047.6 18930.2 18810.5 18686.5 18559.7 18432.8 18305.8 18176.4 18042.3 17904.3 17766.2 17627.8 17486 17339 17189.3 17039.5 16889.5 16737.2 16579.4 16414.9 16250 16084.7 15913.3 15735.5 15557.4 15379.2 15201.1 15023 14838.3 14638.8 14438.5 14237.4 14022.2 13798.9 13585.9 13373.4 13161.4 12960.1 12751.2 12503.7 12253.9 12002.1 11712.7 11412.6 11157.2 10904.8 10655 10450.2 10237.7 9921.68 9598.11 9265.95 8833.27 8384.28 8071.52 7773.91 7494.32 7349.22 7198.18 6801.71 6357.24 5839.01 5089.64 4311.35 3779.2 3398.28 3250.92 3316.66 3382.96 3362.01 2777.13 1388.16 0