# vtk DataFile Version 2.0
track0
ASCII
DATASET POLYDATA
POINTS 12278 float
-0.0205 0.001 1e-05
-0.02052 0.000999216 1e-05
-0.02054 0.000998592 1e-05
-0.02056 0.000998126 1e-05
-0.02058 0.000997818 1e-05
-0.0206 0.000997665 1e-05
-0.0205 0.00367778 1e-05
-0.02052 0.00367703 1e-05
-0.02054 0.00367643 1e-05
-0.02056 0.00367599 1e-05
-0.02058 0.00367569 1e-05
-0.0206 0.00367554 1e-05
-0.0205 0.00635556 1e-05
-0.02052 0.00635527 1e-05
-0.02054 0.00635505 1e-05
-0.02056 0.00635488 1e-05
-0.02058 0.00635476 1e-05
-0.0206 0.00635471 1e-05
-0.0205 0.00903333 1e-05
-0.02052 0.00903311 1e-05
-0.02054 0.00903293 1e-05
-0.02056 0.0090328 1e-05
-0.02058 0.00903271 1e-05
-0.0206 0.00903266 1e-05
-0.0205 0.0117111 1e-05
-0.02052 0.0117111 1e-05
-0.02054 0.011711 1e-05
-0.02056 0.011711 1e-05
-0.02058 0.011711 1e-05
-0.0206 0.011711 1e-05
-0.0205 0.0143889 1e-05
-0.02052 0.014389 1e-05
-0.02054 0.014389 1e-05
-0.02056 0.0143891 1e-05
-0.02058 0.0143891 1e-05
-0.0206 0.0143891 1e-05
-0.0205 0.0170667 1e-05
-0.02052 0.017067 1e-05
-0.02054 0.0170672 1e-05
-0.02056 0.0170674 1e-05
-0.02058 0.0170675 1e-05
-0.0206 0.0170676 1e-05
-0.0205 0.0197444 1e-05
-0.02052 0.019745 1e-05
-0.02054 0.0197454 1e-05
-0.02056 0.0197457 1e-05
-0.02058 0.0197459 1e-05
-0.0206 0.019746 1e-05
-0.0205 0.0224222 1e-05
-0.02052 0.022423 1e-05
-0.02054 0.0224236 1e-05
-0.02056 0.0224241 1e-05
-0.02058 0.0224244 1e-05
-0.0206 0.0224245 1e-05
-0.0205 0.0251 1e-05
-0.02052 0.0251003 1e-05
-0.02054 0.0251005 1e-05
-0.02056 0.0251007 1e-05
-0.02058 0.0251008 1e-05
-0.0206 0.0251008 1e-05
-0.0205 0.001 1e-05
-0.0203632 0.00100536 1e-05
-0.0202266 0.00101331 1e-05
-0.0200901 0.00102296 1e-05
-0.0200427 0.00102682 1e-05
-0.0198376 0.00104418 1e-05
-0.0196338 0.00107322 1e-05
-0.0194327 0.00111734 1e-05
-0.0192368 0.00118024 1e-05
-0.0190172 0.00124951 1e-05
-0.0189002 0.00128348 1e-05
-0.0187827 0.00131598 1e-05
-0.0186649 0.001347 1e-05
-0.0185469 0.001377 1e-05
-0.0183807 0.00141936 1e-05
-0.0182041 0.00146458 1e-05
-0.0180267 0.00150692 1e-05
-0.0178487 0.0015464 1e-05
-0.0176703 0.00158389 1e-05
-0.0174976 0.00161991 1e-05
-0.0172846 0.00166394 1e-05
-0.0170715 0.00170741 1e-05
-0.0168583 0.00175029 1e-05
-0.0166449 0.00179219 1e-05
-0.0163945 0.00184007 1e-05
-0.0163234 0.00185324 1e-05
-0.0162522 0.00186629 1e-05
-0.016181 0.00187921 1e-05
-0.0161097 0.00189201 1e-05
-0.0160387 0.0019046 1e-05
-0.0157586 0.0019535 1e-05
-0.0154779 0.00199931 1e-05
-0.0151968 0.00204225 1e-05
-0.0149154 0.00208283 1e-05
-0.0146381 0.00212134 1e-05
-0.0143838 0.00215527 1e-05
-0.0141293 0.00218766 1e-05
-0.0138747 0.00221855 1e-05
-0.0136198 0.00224797 1e-05
-0.0132934 0.00228369 1e-05
-0.0132791 0.00228515 1e-05
-0.0132648 0.0022866 1e-05
-0.0132504 0.00228805 1e-05
-0.0132361 0.0022895 1e-05
-0.0132214 0.00229098 1e-05
-0.0129776 0.00231543 1e-05
-0.0127337 0.00233865 1e-05
-0.0124897 0.00236061 1e-05
-0.0122456 0.0023813 1e-05
-0.0120025 0.00240058 1e-05
-0.0117547 0.00241909 1e-05
-0.0115067 0.00243627 1e-05
-0.0112587 0.00245231 1e-05
-0.0110106 0.00246734 1e-05
-0.0107632 0.00248136 1e-05
-0.0105252 0.00249391 1e-05
-0.0102872 0.00250547 1e-05
-0.0100491 0.00251602 1e-05
-0.00981105 0.00252575 1e-05
-0.00957337 0.00253472 1e-05
-0.00934491 0.00254261 1e-05
-0.00911643 0.00254974 1e-05
-0.00888792 0.00255611 1e-05
-0.0086594 0.00256172 1e-05
-0.00843108 0.00256669 1e-05
-0.00821175 0.00257085 1e-05
-0.00799241 0.00257439 1e-05
-0.00777306 0.00257731 1e-05
-0.0075537 0.00257953 1e-05
-0.00733443 0.00258115 1e-05
-0.00712387 0.00258213 1e-05
-0.0069133 0.00258256 1e-05
-0.00670273 0.00258244 1e-05
-0.00649216 0.00258163 1e-05
-0.0062816 0.00258018 1e-05
-0.00607944 0.0025782 1e-05
-0.0058773 0.00257566 1e-05
-0.00567516 0.00257258 1e-05
-0.00547303 0.00256876 1e-05
-0.00527083 0.0025642 1e-05
-0.00507675 0.00255914 1e-05
-0.00488269 0.00255344 1e-05
-0.00468865 0.00254712 1e-05
-0.00449464 0.00253999 1e-05
-0.00430044 0.00253192 1e-05
-0.00411412 0.00252331 1e-05
-0.00392784 0.0025139 1e-05
-0.00374159 0.0025037 1e-05
-0.0035554 0.00249257 1e-05
-0.00336883 0.00248018 1e-05
-0.00318995 0.00246714 1e-05
-0.00301115 0.00245302 1e-05
-0.00283245 0.00243777 1e-05
-0.00265386 0.00242123 1e-05
-0.00247443 0.00240317 1e-05
-0.0023027 0.00238428 1e-05
-0.00213114 0.00236387 1e-05
-0.00195982 0.00234157 1e-05
-0.00178875 0.00231741 1e-05
-0.00161577 0.00229108 1e-05
-0.00161564 0.00229106 1e-05
-0.00161551 0.00229104 1e-05
-0.00161538 0.00229102 1e-05
-0.00161525 0.002291 1e-05
-0.00161512 0.00229098 1e-05
-0.00145038 0.00226408 1e-05
-0.00128604 0.00223482 1e-05
-0.00112213 0.00220327 1e-05
-0.00095866 0.00216949 1e-05
-0.000791418 0.00213239 1e-05
-0.000633135 0.00209428 1e-05
-0.000475556 0.00205336 1e-05
-0.000318719 0.00200967 1e-05
-0.000162834 0.0019627 1e-05
0 0.00190955 1e-05
3.73602e-05 0.00189635 1e-05
7.46203e-05 0.00188286 1e-05
0.000111782 0.0018691 1e-05
0.000148846 0.00185509 1e-05
0.000179168 0.00184338 1e-05
0.000249012 0.00181595 1e-05
0.000318445 0.00178749 1e-05
0.000387453 0.00175802 1e-05
0.000456022 0.00172754 1e-05
0.000528387 0.00169417 1e-05
0.000634886 0.00164319 1e-05
0.000740278 0.00158996 1e-05
0.00084451 0.0015345 1e-05
0.00094762 0.00147697 1e-05
0.00101995 0.00143469 1e-05
0.00102814 0.00142974 1e-05
0.00103632 0.00142478 1e-05
0.00104448 0.0014198 1e-05
0.00105264 0.00141481 1e-05
0.00106088 0.00140974 1e-05
0.00116821 0.00134356 1e-05
0.00127404 0.001275 1e-05
0.00137827 0.00120405 1e-05
0.00148099 0.00113092 1e-05
0.00159676 0.00104511 1e-05
0.00159691 0.00104499 1e-05
0.00159706 0.00104487 1e-05
0.00159721 0.00104475 1e-05
0.00159737 0.00104464 1e-05
0.00159752 0.00104452 1e-05
0.0016922 0.000970939 1e-05
0.00178548 0.000895593 1e-05
0.00187727 0.000818448 1e-05
0.00196765 0.000739648 1e-05
0.00203805 0.000676367 1e-05
0.00205811 0.000657887 1e-05
0.00207808 0.000639317 1e-05
0.00209797 0.000620658 1e-05
0.0021178 0.000601936 1e-05
0.00213833 0.000582432 1e-05
0.00219147 0.000531605 1e-05
0.00224412 0.00048026 1e-05
0.00229625 0.00042839 1e-05
0.00234785 0.00037599 1e-05
0.00239415 0.000328255 1e-05
0.00245199 0.000267804 1e-05
0.00250919 0.000206753 1e-05
0.00256577 0.00014512 1e-05
0.00262183 8.30199e-05 1e-05
0.00268334 1.37094e-05 1e-05
0.00268572 1.09675e-05 1e-05
0.00268811 8.22462e-06 1e-05
0.00269049 5.4807e-06 1e-05
0.00269287 2.73575e-06 1e-05
0.00269525 0 1e-05
0.00275914 -7.37368e-05 1e-05
0.00282242 -0.000148005 1e-05
0.00288506 -0.000222813 1e-05
0.00294704 -0.000298173 1e-05
0.00300411 -0.000368654 1e-05
0.0030498 -0.000425923 1e-05
0.00309519 -0.000483437 1e-05
0.00314027 -0.000541193 1e-05
0.0031851 -0.000599145 1e-05
0.00323259 -0.000661108 1e-05
0.00325064 -0.000684905 1e-05
0.00326865 -0.000708742 1e-05
0.0032866 -0.000732619 1e-05
0.00330449 -0.000756536 1e-05
0.00332205 -0.00078009 1e-05
0.00339019 -0.000871877 1e-05
0.00345773 -0.000964107 1e-05
0.00352465 -0.00105679 1e-05
0.00359102 -0.00114986 1e-05
0.00365389 -0.00123896 1e-05
0.00368033 -0.00127684 1e-05
0.0037067 -0.00131477 1e-05
0.00373299 -0.00135275 1e-05
0.00375923 -0.00139077 1e-05
0.00378611 -0.00142983 1e-05
0.0038301 -0.00149396 1e-05
0.00387387 -0.00155823 1e-05
0.00391743 -0.00162266 1e-05
0.00396076 -0.00168723 1e-05
0.00400292 -0.00175044 1e-05
0.00407112 -0.00185326 1e-05
0.00413891 -0.00195636 1e-05
0.00420627 -0.00205973 1e-05
0.00427334 -0.0021633 1e-05
0.00434393 -0.00227296 1e-05
0.00434998 -0.00228243 1e-05
0.00435603 -0.0022919 1e-05
0.00436208 -0.00230137 1e-05
0.00436812 -0.00231085 1e-05
0.00437414 -0.0023203 1e-05
0.00445499 -0.00244725 1e-05
0.00453538 -0.00257449 1e-05
0.00461538 -0.00270197 1e-05
0.00469502 -0.00282968 1e-05
0.00477289 -0.00295498 1e-05
0.00479953 -0.00299799 1e-05
0.00482615 -0.00304102 1e-05
0.00485273 -0.00308407 1e-05
0.00487931 -0.00312712 1e-05
0.00490609 -0.00317049 1e-05
0.00496673 -0.00326872 1e-05
0.00502721 -0.00336704 1e-05
0.00508755 -0.00346545 1e-05
0.00514775 -0.00356395 1e-05
0.0052074 -0.00366161 1e-05
0.00526045 -0.00374852 1e-05
0.00531345 -0.00383545 1e-05
0.00536641 -0.00392241 1e-05
0.0054194 -0.00400935 1e-05
0.00547262 -0.00409655 1e-05
0.00551559 -0.00416687 1e-05
0.00555853 -0.0042372 1e-05
0.00560143 -0.00430755 1e-05
0.00564432 -0.00437792 1e-05
0.00568714 -0.00444811 1e-05
0.00575842 -0.00456487 1e-05
0.00582975 -0.0046816 1e-05
0.00590113 -0.00479829 1e-05
0.00597264 -0.00491491 1e-05
0.00604356 -0.00503009 1e-05
0.0060798 -0.00508872 1e-05
0.00611606 -0.00514735 1e-05
0.00615232 -0.00520597 1e-05
0.0061886 -0.00526458 1e-05
0.00622499 -0.00532326 1e-05
0.00630378 -0.00545005 1e-05
0.00638276 -0.00557672 1e-05
0.00646193 -0.00570327 1e-05
0.00654138 -0.00582966 1e-05
0.00661893 -0.00595222 1e-05
0.00666281 -0.00602111 1e-05
0.00670674 -0.00608998 1e-05
0.00675073 -0.0061588 1e-05
0.0067948 -0.00622758 1e-05
0.00683925 -0.00629671 1e-05
0.00691115 -0.00640816 1e-05
0.00698331 -0.00651945 1e-05
0.00705573 -0.00663056 1e-05
0.00712844 -0.00674149 1e-05
0.00719878 -0.006848 1e-05
0.00726943 -0.0069542 1e-05
0.00734031 -0.00706026 1e-05
0.00741141 -0.00716617 1e-05
0.00748282 -0.00727187 1e-05
0.00755576 -0.00737909 1e-05
0.00760123 -0.00744545 1e-05
0.00764684 -0.00751173 1e-05
0.00769257 -0.00757792 1e-05
0.00773843 -0.00764401 1e-05
0.00778313 -0.0077081 1e-05
0.00790091 -0.00787609 1e-05
0.00801946 -0.00804353 1e-05
0.00813878 -0.00821042 1e-05
0.0082591 -0.0083766 1e-05
0.00837203 -0.00853052 1e-05
0.00837967 -0.00854079 1e-05
0.00838732 -0.00855107 1e-05
0.00839496 -0.00856133 1e-05
0.00840261 -0.0085716 1e-05
0.00841029 -0.00858189 1e-05
0.00852133 -0.00873063 1e-05
0.0086332 -0.00887876 1e-05
0.00874591 -0.00902625 1e-05
0.00885949 -0.00917307 1e-05
0.00896551 -0.00930825 1e-05
0.00903003 -0.00938947 1e-05
0.00909482 -0.00947047 1e-05
0.00915987 -0.00955126 1e-05
0.00922523 -0.00963181 1e-05
0.00929275 -0.00971438 1e-05
0.00934692 -0.0097801 1e-05
0.00940128 -0.00984566 1e-05
0.00945585 -0.00991106 1e-05
0.00951061 -0.00997629 1e-05
0.0095636 -0.010039 1e-05
[...]
POINT_DATA 12278
 FIELD attributes 1
U 3 12278 float
9.72339 	0.381311 	0 9.77871 	0.305049 	0 9.83405 	0.228765 	0 9.8894 	0.152465 	0 9.94476 	0.0761532 	0 10 	0 	0
10.0671 	0.375483 	0 10.0537 	0.300387 	0 10.0403 	0.225271 	0 10.0268 	0.150141 	0 10.0134 	0.0750008 	0 10 	0 	0
10.0364 	0.141572 	0 10.0291 	0.113304 	0 10.0218 	0.085089 	0 10.0145 	0.0569263 	0 10.0071 	0.0288164 	0 10 	0 	0
10.0137 	0.111519 	0 10.011 	0.0892152 	0 10.0082 	0.0669109 	0 10.0055 	0.0446062 	0 10.0027 	0.0223013 	0 10 	0 	0
10.0097 	0.0196536 	0 10.0078 	0.0157229 	0 10.0058 	0.0117921 	0 10.0039 	0.00786142 	0 10.0019 	0.0039307 	0 10 	0 	0
10.0102 	-0.0372873 	0 10.0082 	-0.0298299 	0 10.0061 	-0.0223724 	0 10.0041 	-0.0149149 	0 10.002 	-0.00745737 	0 10 	0 	0
10.0174 	-0.148996 	0 10.0139 	-0.119197 	0 10.0105 	-0.0893967 	0 10.007 	-0.0595953 	0 10.0035 	-0.0297932 	0 10 	0 	0
10.0362 	-0.265901 	0 10.029 	-0.212721 	0 10.0217 	-0.159534 	0 10.0145 	-0.106342 	0 10.0072 	-0.053146 	0 10 	0 	0
10.0563 	-0.387167 	0 10.045 	-0.309734 	0 10.0338 	-0.23228 	0 10.0225 	-0.15481 	0 10.0112 	-0.0773282 	0 10 	0 	0
8.30133 	-0.114495 	0 8.4287 	-0.091596 	0 8.55659 	-0.0686962 	0 8.68498 	-0.0457957 	0 8.81385 	-0.0228949 	0 8.94315 	0 	0
9.72339 	0.381311 	0 9.5415 	0.555241 	0 9.39671 	0.663651 	0 9.26203 	0.754271 	0 9.2183 	0.780385 	0 8.95344 	1.27614 	0 8.70578 	1.91036 	0 8.48173 	2.72184 	0 8.46724 	2.67123 	0 8.47252 	2.45986 	0 8.50117 	2.35314 	0 8.52498 	2.2443 	0 8.51221 	2.16311 	0 8.42487 	2.14738 	0 8.30214 	2.12559 	0 8.30117 	1.9821 	0 8.28715 	1.83798 	0 8.21181 	1.72569 	0 8.035 	1.67507 	0 7.86306 	1.62575 	0 7.68323 	1.56759 	0 7.50177 	1.50875 	0 7.42793 	1.45839 	0 7.36148 	1.40771 	0 7.27865 	1.34671 	0 7.22249 	1.32376 	0 7.16614 	1.3007 	0 7.10958 	1.27753 	0 7.07928 	1.2544 	0 7.05291 	1.23121 	0 6.97394 	1.13838 	0 6.88841 	1.05226 	0 6.79883 	0.980329 	0 6.71191 	0.932083 	0 6.6228 	0.883659 	0 6.55089 	0.833775 	0 6.49228 	0.787588 	0 6.44246 	0.743857 	0 6.3887 	0.699092 	0 6.31694 	0.642267 	0 6.31476 	0.640172 	0 6.3132 	0.638348 	0 6.31172 	0.636561 	0 6.31022 	0.634773 	0 6.30868 	0.632934 	0 6.27131 	0.597064 	0 6.23151 	0.560865 	0 6.18921 	0.524334 	0 6.1444 	0.487465 	0 6.10942 	0.456255 	0 6.07602 	0.420973 	0 6.0457 	0.390998 	0 6.017 	0.364554 	0 5.99442 	0.339604 	0 5.97315 	0.3152 	0 5.95245 	0.289067 	0 5.92971 	0.262724 	0 5.91347 	0.241663 	0 5.90339 	0.222659 	0 5.89181 	0.203592 	0 5.87916 	0.183525 	0 5.86497 	0.163359 	0 5.85626 	0.143795 	0 5.85336 	0.127407 	0 5.84918 	0.110992 	0 5.84295 	0.0943574 	0 5.83548 	0.0776815 	0 5.8334 	0.0589794 	0 5.83629 	0.043106 	0 5.83798 	0.0272332 	0 5.83715 	0.0119359 	0 5.83533 	-0.00343072 	0 5.83919 	-0.0225315 	0 5.8473 	-0.0400224 	0 5.85423 	-0.0574592 	0 5.85858 	-0.0735256 	0 5.86182 	-0.0895662 	0 5.87119 	-0.110954 	0 5.88465 	-0.132491 	0 5.89662 	-0.153957 	0 5.90647 	-0.173323 	0 5.91504 	-0.192619 	0 5.92936 	-0.218078 	0 5.94824 	-0.247033 	0 5.96524 	-0.275848 	0 5.98117 	-0.302079 	0 5.99547 	-0.328161 	0 6.01451 	-0.359775 	0 6.03861 	-0.400938 	0 6.06021 	-0.441857 	0 6.08255 	-0.48032 	0 6.10474 	-0.520939 	0 6.13005 	-0.567594 	0 6.15452 	-0.619668 	0 6.17865 	-0.679476 	0 6.20603 	-0.738465 	0 6.23737 	-0.811854 	0 6.26484 	-0.884707 	0 6.28849 	-0.957022 	0 6.3086 	-1.02973 	0 6.30862 	-1.0298 	0 6.30864 	-1.02989 	0 6.30866 	-1.02998 	0 6.30869 	-1.03007 	0 6.30871 	-1.03015 	0 6.33248 	-1.12731 	0 6.35101 	-1.22236 	0 6.36442 	-1.31534 	0 6.37517 	-1.41401 	0 6.38844 	-1.53817 	0 6.40624 	-1.66391 	0 6.41779 	-1.78756 	0 6.40567 	-1.93006 	2.61987e-20 6.36929 	-2.07902 	5.37065e-20 6.31914 	-2.23379 	8.12086e-20 6.31092 	-2.28427 	2.3324e-20 6.29873 	-2.33163 	5.76681e-21 6.28236 	-2.37567 	3.12112e-20 6.26543 	-2.41946 	5.72766e-20 6.25108 	-2.45516 	7.91657e-20 6.22469 	-2.55098 	1.78909e-19 6.19636 	-2.64625 	2.82812e-19 6.16609 	-2.74093 	3.90847e-19 6.11995 	-2.82205 	2.74244e-19 6.06342 	-2.90236 	6.24693e-20 5.98346 	-3.02202 	4.92516e-20 5.8983 	-3.13871 	3.61719e-20 5.80143 	-3.23655 	8.55458e-21 5.70017 	-3.33245 	-1.8063e-20 5.62517 	-3.39909 	-3.62241e-20 5.61605 	-3.40837 	-3.60166e-20 5.60689 	-3.41764 	-3.57943e-20 5.59767 	-3.42626 	-3.6942e-20 5.5883 	-3.4332 	-4.17362e-20 5.5788 	-3.4402 	-4.65759e-20 5.45891 	-3.53641 	-2.83075e-20 5.3337 	-3.63065 	-9.46637e-21 5.20767 	-3.70761 	1.17474e-22 5.08144 	-3.76649 	-2.05063e-22 4.93234 	-3.83186 	6.59644e-23 4.93211 	-3.83199 	3.77481e-23 4.93189 	-3.83211 	9.53148e-24 4.93168 	-3.8322 	1.67329e-23 4.93148 	-3.83227 	4.20015e-23 4.93129 	-3.83233 	6.72774e-23 4.80555 	-3.88169 	1.12057e-21 4.67572 	-3.92944 	2.47843e-21 4.54878 	-3.96594 	4.20663e-21 4.43112 	-3.98304 	6.33221e-21 4.33579 	-3.99541 	8.20327e-21 4.30548 	-4.00306 	1.33447e-20 4.27496 	-4.01064 	1.85241e-20 4.24968 	-4.01235 	9.2132e-21 4.22453 	-4.01371 	-8.26517e-22 4.19827 	-4.01507 	-1.12355e-20 4.12443 	-4.02238 	-6.36324e-20 4.04942 	-4.02917 	-1.15661e-19 3.97336 	-4.03528 	-1.65868e-19 3.90917 	-4.02975 	-1.01597e-19 3.85034 	-4.02437 	-4.30517e-20 3.77279 	-4.02651 	4.15633e-21 3.69535 	-4.02577 	4.19626e-20 3.62349 	-4.01366 	3.41667e-20 3.55055 	-4.00107 	2.66415e-20 3.46854 	-3.98659 	1.86164e-20 3.46518 	-3.98617 	1.92475e-20 3.46181 	-3.98575 	1.98787e-20 3.45844 	-3.98532 	2.05101e-20 3.45526 	-3.9846 	2.10399e-20 3.45217 	-3.98375 	2.1528e-20 3.38404 	-3.97174 	1.41221e-20 3.31385 	-3.95759 	7.4136e-21 3.24245 	-3.94274 	6.99716e-22 3.17067 	-3.91567 	6.17291e-21 3.10303 	-3.8889 	1.23565e-20 3.06096 	-3.8789 	3.47203e-20 3.01859 	-3.86751 	5.06143e-20 2.977 	-3.84856 	2.33618e-20 2.93502 	-3.82938 	-3.83372e-21 2.88984 	-3.8087 	-3.27497e-20 2.87169 	-3.80214 	-3.88619e-20 2.85346 	-3.79552 	-4.49763e-20 2.83515 	-3.78886 	-5.10929e-20 2.81693 	-3.77978 	-5.72951e-20 2.79898 	-3.77025 	-6.34156e-20 2.74559 	-3.7492 	-1.07143e-19 2.69136 	-3.72764 	-1.50991e-19 2.63656 	-3.69701 	-1.46192e-19 2.58214 	-3.65963 	-8.81831e-20 2.52962 	-3.62353 	-3.27021e-20 2.51271 	-3.61462 	2.0416e-21 2.49575 	-3.6055 	3.51835e-20 2.47989 	-3.59311 	2.99334e-20 2.46397 	-3.58069 	2.47184e-20 2.44755 	-3.56789 	1.94035e-20 2.417 	-3.54879 	5.65376e-20 2.38619 	-3.52951 	9.35921e-20 2.35512 	-3.51003 	1.30565e-19 2.32512 	-3.48551 	1.0346e-19 2.2957 	-3.46106 	7.22943e-20 2.25878 	-3.43538 	4.24512e-20 2.2214 	-3.40937 	1.25758e-20 2.18685 	-3.37653 	-2.88673e-21 2.15205 	-3.34334 	-1.80884e-20 2.11493 	-3.30802 	-3.41893e-20 2.11121 	-3.30516 	-3.17585e-20 2.10748 	-3.30229 	-2.93305e-20 2.10376 	-3.29941 	-2.69054e-20 2.10025 	-3.29597 	-3.39775e-20 2.09675 	-3.29252 	-4.13475e-20 2.06003 	-3.26025 	-1.64694e-19 2.0243 	-3.22592 	-2.56684e-19 1.98925 	-3.18981 	-2.99666e-19 1.95701 	-3.14893 	-1.93326e-19 1.92525 	-3.10871 	-8.89882e-20 1.91665 	-3.09903 	-7.79024e-20 1.90803 	-3.08934 	-6.68123e-20 1.9007 	-3.0785 	-5.65458e-20 1.89366 	-3.0674 	-4.64699e-20 1.88657 	-3.05622 	-3.63183e-20 1.86464 	-3.03083 	-1.17727e-20 1.84259 	-3.00535 	1.27942e-20 1.82099 	-2.97918 	2.99776e-20 1.80196 	-2.95021 	1.2139e-20 1.78306 	-2.92146 	-5.53575e-21 1.76967 	-2.9025 	-2.11514e-20 1.75625 	-2.88352 	-3.67553e-20 1.74501 	-2.86323 	-1.81209e-20 1.73471 	-2.84243 	1.47072e-20 1.72441 	-2.8216 	4.76421e-20 1.71208 	-2.8044 	1.21362e-20 1.69973 	-2.78719 	-2.33194e-20 1.68801 	-2.7695 	-3.4944e-20 1.67793 	-2.75064 	1.29462e-20 1.66789 	-2.73185 	6.0705e-20 1.65455 	-2.70765 	1.97481e-19 1.64125 	-2.68347 	3.34196e-19 1.63033 	-2.65853 	2.96363e-19 1.62117 	-2.6331 	1.33615e-19 1.61225 	-2.60806 	-2.78258e-20 1.60445 	-2.5947 	-5.73736e-20 1.59665 	-2.58135 	-8.69294e-20 1.58966 	-2.56765 	-8.97802e-20 1.58378 	-2.55349 	-5.62823e-20 1.57792 	-2.53933 	-2.27579e-20 1.56792 	-2.51482 	-2.46187e-20 1.55804 	-2.49039 	-2.65194e-20 1.5501 	-2.46584 	-1.93201e-20 1.54466 	-2.44115 	-4.85423e-22 1.53959 	-2.41733 	1.77684e-20 1.53295 	-2.40285 	2.97383e-20 1.52633 	-2.3884 	4.17035e-20 1.52102 	-2.37371 	4.5736e-20 1.51667 	-2.35889 	4.41139e-20 1.51235 	-2.34403 	4.24619e-20 1.50711 	-2.32429 	2.55777e-20 1.502 	-2.30466 	8.668e-21 1.49796 	-2.28524 	-3.12825e-21 1.49661 	-2.26618 	-1.11558e-21 1.49551 	-2.24801 	8.17916e-22 1.48854 	-2.22751 	7.6219e-20 1.48168 	-2.2071 	1.51847e-19 1.47742 	-2.18685 	1.2574e-19 1.47408 	-2.16676 	6.77825e-20 1.47086 	-2.14648 	8.99946e-21 1.46965 	-2.13593 	-2.33972e-20 1.46851 	-2.12543 	-5.57503e-20 1.46762 	-2.1151 	-8.20915e-20 1.46915 	-2.1062 	-3.65285e-20 1.47072 	-2.09762 	7.88455e-21 1.46359 	-2.06741 	4.60748e-21 1.45676 	-2.03747 	1.31263e-21 1.456 	-2.0109 	-2.34858e-20 1.45656 	-1.9852 	-5.17644e-20 1.45916 	-1.96222 	-7.49258e-20 1.45869 	-1.96027 	-6.86411e-20 1.45822 	-1.95833 	-6.24088e-20 1.45817 	-1.95659 	-6.71139e-20 1.45812 	-1.95485 	-7.18167e-20 1.45808 	-1.95311 	-7.65298e-20 1.4562 	-1.92817 	-2.09663e-19 1.45469 	-1.90353 	-3.42061e-19 1.45391 	-1.87946 	-4.46836e-19 1.45817 	-1.85923 	-1.91284e-19 1.46254 	-1.84085 	4.71285e-20 1.46039 	-1.82596 	1.11127e-19 1.45836 	-1.81118 	1.74923e-19 1.45928 	-1.79851 	1.42259e-19 1.46033 	-1.78595 	1.09695e-19 1.46153 	-1.77314 	7.63144e-20 1.46246 	-1.76355 	6.73714e-20 1.46346 	-1.75403 	5.84504e-20 1.46455 	-1.74458 	4.95518e-20 1.46717 	-1.73638 	5.16297e-20 1.46984 	-1.72861 	5.41494e-20 1.46933 	-1.70534 	2.94577e-20 1.46917 	-1.68236 	4.70409e-21 1.47209 	-1.6618 	2.02796e-20 1.47668 	-1.64233 	4.53672e-20 1.48262 	-1.62522 	6.8599e-20 1.48261 	-1.62117 	6.74871e-20 1.48269 	-1.6172 	6.76496e-20 1.48327 	-1.6136 	7.51651e-20 1.48387 	-1.61001 	8.26787e-20 1.48449 	-1.60638 	9.02795e-20 1.4872 	-1.59062 	1.39724e-19 1.49018 	-1.57506 	1.89047e-19 1.49343 	-1.5597 	2.38243e-19 1.49861 	-1.54618 	1.68544e-19 1.50403 	-1.53399 	8.21582e-20 1.50569 	-1.51451 	1.5543e-19 1.50819 	-1.49577 	2.03479e-19 1.51281 	-1.47897 	1.61674e-19 1.51777 	-1.46243 	1.20398e-19 1.52347 	-1.44495 	7.66633e-20 1.5235 	-1.44487 	7.63503e-20 1.52353 	-1.44478 	7.60373e-20 1.52356 	-1.4447 	7.57244e-20 1.5236 	-1.44462 	7.61405e-20 1.52364 	-1.44455 	7.68757e-20 1.52803 	-1.42751 	1.26867e-19 1.53284 	-1.41076 	1.74913e-19 1.53802 	-1.39427 	2.22568e-19 1.54479 	-1.37956 	1.84303e-19 1.55189 	-1.36663 	1.17174e-19 1.55523 	-1.34903 	2.03203e-19 1.55945 	-1.33231 	2.39285e-19 1.5651 	-1.31717 	1.74539e-19 1.57108 	-1.30226 	1.10008e-19 1.57742 	-1.28872 	3.78578e-20 1.57765 	-1.28775 	3.76116e-20 1.57791 	-1.28682 	3.67996e-20 1.57823 	-1.28596 	3.52742e-20 1.57854 	-1.2851 	3.37483e-20 1.57886 	-1.28423 	3.22139e-20 1.58409 	-1.27026 	-1.3366e-20 1.58961 	-1.25649 	-5.88665e-20 1.59544 	-1.24291 	-1.04285e-19 1.60215 	-1.23055 	-8.93564e-20 1.60922 	-1.2198 	-2.99723e-20 1.61368 	-1.20428 	-7.53587e-20 1.61844 	-1.18897 	-1.21159e-19 1.62452 	-1.17559 	-1.03561e-19 1.63181 	-1.16293 	-6.09359e-20 1.63984 	-1.15155 	3.30016e-22 1.64212 	-1.14474 	2.86962e-20 1.64473 	-1.13844 	2.81854e-20 1.64758 	-1.1325 	7.09765e-21 1.6505 	-1.1266 	-1.39396e-20 1.65362 	-1.12045 	-3.59711e-20 1.65727 	-1.1136 	-6.79993e-20 1.66102 	-1.1068 	-9.99152e-20 1.66485 	-1.10006 	-1.31718e-19 1.6689 	-1.09375 	-1.31267e-19 1.67316 	-1.08825 	-7.98833e-20 1.67831 	-1.07451 	-1.11921e-19 1.68433 	-1.06125 	-1.36232e-19 1.69166 	-1.04885 	-1.45613e-19 1.69985 	-1.03824 	-1.35284e-19 1.70794 	-1.02827 	-1.25295e-19 1.71372 	-1.01476 	-2.75599e-19 1.71999 	-1.00207 	-3.49876e-19 1.72688 	-0.990628 	-2.95805e-19 1.73403 	-0.979347 	-2.42243e-19 1.74232 	-0.969266 	-1.161e-19 1.74441 	-0.964953 	-8.27594e-20 1.74665 	-0.961088 	-8.49653e-20 1.74895 	-0.957356 	-9.67653e-20 1.75127 	-0.953641 	-1.08518e-19 1.75373 	-0.949785 	-1.20724e-19 1.75861 	-0.942405 	-1.24344e-19 1.76361 	-0.935092 	-1.27937e-19 1.76872 	-0.927847 	-1.31503e-19 1.77398 	-0.920892 	-1.29685e-19 1.77934 	-0.915108 	-1.05223e-19 1.78539 	-0.903176 	-1.32834e-19 1.79244 	-0.891816 	-1.44863e-19 1.80038 	-0.880962 	-1.43635e-19 1.8087 	-0.871899 	-1.02947e-19 1.81698 	-0.863367 	-6.09208e-20 1.8236 	-0.851676 	-1.64883e-19 1.83048 	-0.840154 	-2.6662e-19 1.83764 	-0.830461 	-2.25308e-19 1.84585 	-0.821352 	-1.27946e-19 1.85454 	-0.812906 	4.45847e-23 1.86114 	-0.802375 	1.42628e-22 1.8679 	-0.793472 	1.08091e-22 1.87485 	-0.784712 	6.95547e-23 1.882 	-0.776051 	3.05913e-23 1.89036 	-0.766307 	-1.42461e-23 1.89075 	-0.765869 	7.47127e-22 1.89115 	-0.765432 	1.50797e-21 1.89155 	-0.764995 	2.2683e-21 1.89195 	-0.764558 	3.0281e-21 1.89234 	-0.764207 	4.45255e-22 1.89982 	-0.75475 	-2.54378e-20 1.90761 	-0.745467 	-4.7306e-20 1.91563 	-0.736295 	-6.89957e-20 1.92386 	-0.727248 	-8.98651e-20 1.93177 	-0.72026 	-3.11798e-20 1.93866 	-0.710304 	-2.11093e-20 1.94623 	-0.700785 	-1.38884e-20 1.95461 	-0.691802 	-1.03755e-20 1.96278 	-0.684533 	-1.5966e-20 1.97092 	-0.677665 	-2.24314e-20 1.97824 	-0.667959 	5.39613e-20 1.98578 	-0.658354 	1.30467e-19 1.9932 	-0.650267 	1.32361e-19 2.00151 	-0.643321 	6.57234e-20 2.00986 	-0.636578 	1.62925e-22 2.01757 	-0.627126 	9.67765e-23 2.0251 	-0.618753 	-1.1218e-20 2.03252 	-0.611212 	-3.10635e-20 2.04013 	-0.60375 	-5.08854e-20 2.04859 	-0.597109 	-6.39339e-20 2.05549 	-0.589425 	-1.06389e-19 2.062 	-0.582932 	-1.09936e-19 2.06864 	-0.576496 	-1.13542e-19 2.07543 	-0.570117 	-1.17207e-19 2.08337 	-0.562858 	-1.21482e-19 2.08415 	-0.562174 	-1.22698e-19 2.08494 	-0.561492 	-1.23913e-19 2.08572 	-0.56081 	-1.25128e-19 2.08651 	-0.560129 	-1.26342e-19 2.08723 	-0.559576 	-1.22225e-19 2.09469 	-0.552273 	-9.42824e-20 2.10238 	-0.545116 	-6.50392e-20 2.11025 	-0.538027 	-3.58338e-20 2.1183 	-0.531008 	-6.66652e-21 2.12556 	-0.52552 	1.792e-22 2.13272 	-0.517755 	6.74873e-20 2.14054 	-0.510772 	8.65011e-20 2.14855 	-0.50388 	1.03638e-19 2.15621 	-0.497806 	8.43064e-20 2.16322 	-0.492887 	1.4878e-20 2.17061 	-0.485365 	-5.50626e-20 2.17822 	-0.47799 	-1.1886e-19 2.18629 	-0.471352 	-1.35002e-19 2.19321 	-0.466487 	-6.72708e-20 2.20018 	-0.461706 	-7.23784e-23 2.20777 	-0.454427 	-3.94793e-23 2.21553 	-0.447206 	-6.75242e-24 2.22265 	-0.441343 	0 2.22949 	-0.436626 	0 2.2364 	-0.431983 	0 2.24415 	-0.424944 	0 2.25182 	-0.418229 	0 2.25832 	-0.412994 	0 2.26502 	-0.408217 	-1.01273e-20 2.27182 	-0.403712 	-2.51497e-20 2.27971 	-0.396914 	-6.21411e-21 2.28662 	-0.391279 	-6.36283e-21 2.29312 	-0.386228 	-1.58287e-20 2.29974 	-0.381242 	-2.67113e-20 2.30641 	-0.376875 	-6.64539e-20 2.31412 	-0.370564 	-2.84958e-20 2.32047 	-0.365663 	-3.0285e-20 2.32694 	-0.360795 	-3.20459e-20 2.33352 	-0.355961 	-3.37788e-20 2.34012 	-0.351443 	-4.64615e-20 2.34635 	-0.346592 	-3.69287e-20 2.35195 	-0.342387 	-3.83759e-20 2.35763 	-0.338205 	-3.98017e-20 2.36342 	-0.334048 	-4.12062e-20 2.37025 	-0.329241 	-4.28154e-20 2.37078 	-0.328875 	-4.26937e-20 2.37132 	-0.328509 	-4.25723e-20 2.37186 	-0.328144 	-4.24509e-20 2.3724 	-0.327779 	-4.23298e-20 2.37287 	-0.327469 	-4.25123e-20 2.37903 	-0.322879 	-4.9262e-20 2.38529 	-0.318343 	-5.38103e-20 2.39167 	-0.313835 	-5.82816e-20 2.39815 	-0.309355 	-6.26765e-20 2.40378 	-0.305629 	-3.89591e-20 2.41011 	-0.300913 	-7.52027e-20 2.41628 	-0.296553 	-8.73353e-20 2.42254 	-0.292219 	-9.94091e-20 2.42892 	-0.28791 	-1.11424e-19 2.43356 	-0.284924 	-7.12924e-20 2.44013 	-0.28014 	-1.18614e-19 2.44617 	-0.275953 	-1.2114e-19 2.45232 	-0.27179 	-1.2362e-19 2.4582 	-0.267886 	-1.18995e-19 2.46218 	-0.265322 	-7.53403e-20 2.46879 	-0.260706 	-1.17869e-19 2.47496 	-0.256501 	-1.28046e-19 2.48096 	-0.252506 	-1.22441e-19 2.48589 	-0.249245 	-9.48016e-20 2.48963 	-0.246787 	-4.31997e-20 2.49621 	-0.242374 	4.31582e-20 2.5026 	-0.238154 	1.03914e-19 2.50844 	-0.234325 	1.09409e-19 2.51242 	-0.231637 	5.03748e-20 2.51591 	-0.229282 	-2.66916e-20 2.52245 	-0.225069 	-1.75882e-20 2.52909 	-0.220874 	-8.49474e-21 2.53461 	-0.21729 	8.66918e-21 2.53779 	-0.215023 	2.59576e-20 2.54102 	-0.212769 	4.32209e-20 2.5475 	-0.208751 	-4.33239e-20 2.55408 	-0.204749 	-1.29881e-19 2.55907 	-0.201528 	-1.41237e-19 2.56199 	-0.199362 	-7.10748e-20 2.56496 	-0.197207 	-1.01168e-21 2.57136 	-0.19338 	-9.82864e-23 2.57786 	-0.189568 	7.94315e-22 2.58237 	-0.186683 	-1.56623e-20 2.58503 	-0.184614 	-4.94092e-20 2.58773 	-0.182556 	-8.31312e-20 2.59405 	-0.178916 	-4.76756e-20 2.60046 	-0.175289 	-1.22356e-20 2.60453 	-0.172714 	-8.54671e-21 2.60692 	-0.170741 	-2.59304e-20 2.60935 	-0.168778 	-4.32984e-20 2.61557 	-0.16532 	-2.59877e-20 2.62187 	-0.161877 	-8.71686e-21 2.62548 	-0.1596 	-9.46112e-21 2.62767 	-0.157704 	-2.60538e-20 2.62984 	-0.155832 	-4.33792e-20 2.63595 	-0.152553 	-1.64887e-19 2.64159 	-0.149499 	-2.61752e-19 2.64504 	-0.14734 	-2.57062e-19 2.64731 	-0.145462 	-1.64748e-19 2.64921 	-0.143681 	-4.33597e-20 2.6552 	-0.140575 	-2.59816e-20 2.66021 	-0.137868 	-8.62114e-21 2.66349 	-0.135825 	8.70893e-21 2.66584 	-0.133978 	2.13105e-20 2.66747 	-0.132286 	3.02525e-20 2.67334 	-0.129348 	9.13211e-20 2.67773 	-0.126951 	1.18679e-19 2.68085 	-0.125019 	1.17005e-19 2.68329 	-0.123217 	9.21128e-20 2.68466 	-0.121611 	3.16761e-20 2.6904 	-0.118837 	2.32341e-20 2.69421 	-0.116715 	1.48083e-20 2.69715 	-0.114891 	6.38747e-21 2.69969 	-0.113143 	0 2.70081 	-0.11162 	0 2.70641 	-0.109004 	0 2.70966 	-0.107126 	1.47227e-20 2.71244 	-0.105407 	3.25531e-20 2.71506 	-0.10372 	5.03683e-20 2.71593 	-0.102279 	6.81103e-20 2.7214 	-0.0998169 	1.90108e-19 2.72412 	-0.0981549 	1.93604e-19 2.72674 	-0.096537 	1.91078e-19 2.7294 	-0.0949222 	1.88601e-19 2.73007 	-0.0935553 	7.02166e-20 2.73521 	-0.0912929 	5.32023e-20 2.73762 	-0.0897697 	3.62412e-20 2.74008 	-0.0882492 	1.92719e-20 2.74257 	-0.0867315 	2.29443e-21 2.74325 	-0.0854159 	1.46972e-20 2.74794 	-0.0833703 	-4.34521e-24 2.7502 	-0.0819413 	-2.98912e-23 2.7525 	-0.0805147 	-5.5427e-23 2.75483 	-0.0790905 	-8.09526e-23 2.75552 	-0.0778306 	6.38871e-21 2.75978 	-0.0759799 	-5.08034e-20 2.76189 	-0.0746416 	-4.95045e-20 2.76403 	-0.0733053 	-4.8233e-20 2.76621 	-0.0719711 	-4.6989e-20 2.76689 	-0.0707698 	-5.64344e-21 2.77077 	-0.0690947 	8.55981e-23 2.77272 	-0.0678434 	6.04917e-23 2.77471 	-0.0665938 	3.53756e-23 2.77674 	-0.0653461 	1.02497e-23 2.77742 	-0.0642056 	0 2.78093 	-0.0626883 	1.11916e-20 2.78274 	-0.0615205 	3.7515e-20 2.78459 	-0.0603541 	6.38297e-20 2.78647 	-0.0591893 	9.01357e-20 2.78714 	-0.0581107 	1.07499e-19 2.79031 	-0.0567357 	1.73096e-19 2.79199 	-0.0556478 	1.72018e-19 2.79369 	-0.0545611 	1.70968e-19 2.79543 	-0.0534757 	1.69945e-19 2.79609 	-0.0524595 	1.02489e-19 2.79895 	-0.0512127 	8.75819e-20 2.80049 	-0.0502011 	5.31482e-20 2.80206 	-0.0491906 	1.87091e-20 2.80367 	-0.0481812 	-1.57354e-20 2.8043 	-0.0472271 	-4.66901e-20 2.80687 	-0.046096 	-9.0207e-20 2.80829 	-0.0451573 	-8.89992e-20 2.80974 	-0.0442195 	-8.78251e-20 2.81121 	-0.0432826 	-8.66849e-20 2.81182 	-0.04239 	-3.70508e-20 2.81413 	-0.0413634 	-4.95336e-20 2.81543 	-0.0404941 	-3.17129e-20 2.81675 	-0.0396256 	-1.391e-20 2.8181 	-0.0387578 	3.875e-21 2.81867 	-0.0379255 	4.31041e-20 2.82075 	-0.0369935 	4.98636e-20 2.82193 	-0.0361902 	6.73347e-20 2.82314 	-0.0353875 	8.47975e-20 2.82437 	-0.0345855 	1.02252e-19 2.8249 	-0.0338119 	1.22067e-19 2.82678 	-0.0329656 	1.46225e-19 2.82785 	-0.032225 	1.37003e-19 2.82894 	-0.0314848 	1.27801e-19 2.83006 	-0.0307452 	1.18621e-19 2.83055 	-0.0300286 	8.16895e-20 2.83224 	-0.0292602 	5.80653e-20 2.83321 	-0.0285789 	3.23171e-20 2.8342 	-0.027898 	6.56697e-21 2.83521 	-0.0272176 	-1.9185e-20 2.83565 	-0.0265558 	-4.10469e-20 2.83717 	-0.0258582 	-5.61591e-20 2.83804 	-0.0252331 	-3.8385e-20 2.83894 	-0.0246083 	-2.06368e-20 2.83985 	-0.0239838 	-2.91478e-21 2.84023 	-0.0233747 	4.84818e-20 2.8416 	-0.0227417 	1.02308e-19 2.84239 	-0.0221695 	1.09989e-19 2.84319 	-0.0215976 	1.17712e-19 2.84401 	-0.021026 	1.25479e-19 2.84433 	-0.0204671 	8.86211e-20 2.84558 	-0.0198931 	7.18005e-20 2.84628 	-0.0193708 	6.32568e-20 2.847 	-0.0188488 	5.4709e-20 2.84773 	-0.018327 	4.61571e-20 2.84798 	-0.0178159 	3.76078e-20 2.84913 	-0.0172958 	1.44182e-20 2.84975 	-0.0168205 	1.47661e-20 2.85038 	-0.0163453 	1.50914e-20 2.85103 	-0.0158704 	1.53942e-20 2.85122 	-0.0154045 	4.14752e-20 2.852