# vtk DataFile Version 2.0
track0
ASCII
DATASET POLYDATA
POINTS 12278 float
-0.0205 0.001 1e-05
-0.02052 0.000999216 1e-05
-0.02054 0.000998592 1e-05
-0.02056 0.000998126 1e-05
-0.02058 0.000997818 1e-05
-0.0206 0.000997665 1e-05
-0.0205 0.00367778 1e-05
-0.02052 0.00367703 1e-05
-0.02054 0.00367643 1e-05
-0.02056 0.00367599 1e-05
-0.02058 0.00367569 1e-05
-0.0206 0.00367554 1e-05
-0.0205 0.00635556 1e-05
-0.02052 0.00635527 1e-05
-0.02054 0.00635505 1e-05
-0.02056 0.00635488 1e-05
-0.02058 0.00635476 1e-05
-0.0206 0.00635471 1e-05
-0.0205 0.00903333 1e-05
-0.02052 0.00903311 1e-05
-0.02054 0.00903293 1e-05
-0.02056 0.0090328 1e-05
-0.02058 0.00903271 1e-05
-0.0206 0.00903266 1e-05
-0.0205 0.0117111 1e-05
-0.02052 0.0117111 1e-05
-0.02054 0.011711 1e-05
-0.02056 0.011711 1e-05
-0.02058 0.011711 1e-05
-0.0206 0.011711 1e-05
-0.0205 0.0143889 1e-05
-0.02052 0.014389 1e-05
-0.02054 0.014389 1e-05
-0.02056 0.0143891 1e-05
-0.02058 0.0143891 1e-05
-0.0206 0.0143891 1e-05
-0.0205 0.0170667 1e-05
-0.02052 0.017067 1e-05
-0.02054 0.0170672 1e-05
-0.02056 0.0170674 1e-05
-0.02058 0.0170675 1e-05
-0.0206 0.0170676 1e-05
-0.0205 0.0197444 1e-05
-0.02052 0.019745 1e-05
-0.02054 0.0197454 1e-05
-0.02056 0.0197457 1e-05
-0.02058 0.0197459 1e-05
-0.0206 0.019746 1e-05
-0.0205 0.0224222 1e-05
-0.02052 0.022423 1e-05
-0.02054 0.0224236 1e-05
-0.02056 0.0224241 1e-05
-0.02058 0.0224244 1e-05
-0.0206 0.0224245 1e-05
-0.0205 0.0251 1e-05
-0.02052 0.0251003 1e-05
-0.02054 0.0251005 1e-05
-0.02056 0.0251007 1e-05
-0.02058 0.0251008 1e-05
-0.0206 0.0251008 1e-05
-0.0205 0.001 1e-05
-0.0203632 0.00100536 1e-05
-0.0202266 0.00101331 1e-05
-0.0200901 0.00102296 1e-05
-0.0200427 0.00102682 1e-05
-0.0198376 0.00104418 1e-05
-0.0196338 0.00107322 1e-05
-0.0194327 0.00111734 1e-05
-0.0192368 0.00118024 1e-05
-0.0190172 0.00124951 1e-05
-0.0189002 0.00128348 1e-05
-0.0187827 0.00131598 1e-05
-0.0186649 0.001347 1e-05
-0.0185469 0.001377 1e-05
-0.0183807 0.00141936 1e-05
-0.0182041 0.00146458 1e-05
-0.0180267 0.00150692 1e-05
-0.0178487 0.0015464 1e-05
-0.0176703 0.00158389 1e-05
-0.0174976 0.00161991 1e-05
-0.0172846 0.00166394 1e-05
-0.0170715 0.00170741 1e-05
-0.0168583 0.00175029 1e-05
-0.0166449 0.00179219 1e-05
-0.0163945 0.00184007 1e-05
-0.0163234 0.00185324 1e-05
-0.0162522 0.00186629 1e-05
-0.016181 0.00187921 1e-05
-0.0161097 0.00189201 1e-05
-0.0160387 0.0019046 1e-05
-0.0157586 0.0019535 1e-05
-0.0154779 0.00199931 1e-05
-0.0151968 0.00204225 1e-05
-0.0149154 0.00208283 1e-05
-0.0146381 0.00212134 1e-05
-0.0143838 0.00215527 1e-05
-0.0141293 0.00218766 1e-05
-0.0138747 0.00221855 1e-05
-0.0136198 0.00224797 1e-05
-0.0132934 0.00228369 1e-05
-0.0132791 0.00228515 1e-05
-0.0132648 0.0022866 1e-05
-0.0132504 0.00228805 1e-05
-0.0132361 0.0022895 1e-05
-0.0132214 0.00229098 1e-05
-0.0129776 0.00231543 1e-05
-0.0127337 0.00233865 1e-05
-0.0124897 0.00236061 1e-05
-0.0122456 0.00238129 1e-05
-0.0120025 0.00240058 1e-05
-0.0117547 0.00241909 1e-05
-0.0115067 0.00243627 1e-05
-0.0112587 0.00245231 1e-05
-0.0110106 0.00246734 1e-05
-0.0107632 0.00248136 1e-05
-0.0105252 0.00249391 1e-05
-0.0102872 0.00250547 1e-05
-0.0100491 0.00251602 1e-05
-0.00981105 0.00252575 1e-05
-0.00957337 0.00253471 1e-05
-0.00934491 0.00254261 1e-05
-0.00911643 0.00254974 1e-05
-0.00888792 0.0025561 1e-05
-0.0086594 0.00256171 1e-05
-0.00843108 0.00256668 1e-05
-0.00821175 0.00257085 1e-05
-0.00799241 0.00257439 1e-05
-0.00777306 0.00257731 1e-05
-0.0075537 0.00257953 1e-05
-0.00733443 0.00258114 1e-05
-0.00712387 0.00258213 1e-05
-0.0069133 0.00258256 1e-05
-0.00670273 0.00258243 1e-05
-0.00649216 0.00258162 1e-05
-0.0062816 0.00258018 1e-05
-0.00607944 0.00257819 1e-05
-0.0058773 0.00257566 1e-05
-0.00567516 0.00257257 1e-05
-0.00547303 0.00256875 1e-05
-0.00527083 0.00256419 1e-05
-0.00507675 0.00255913 1e-05
-0.00488269 0.00255343 1e-05
-0.00468865 0.00254711 1e-05
-0.00449464 0.00253998 1e-05
-0.00430044 0.00253191 1e-05
-0.00411412 0.00252329 1e-05
-0.00392784 0.00251388 1e-05
-0.00374159 0.00250369 1e-05
-0.0035554 0.00249255 1e-05
-0.00336883 0.00248016 1e-05
-0.00318995 0.00246712 1e-05
-0.00301115 0.002453 1e-05
-0.00283245 0.00243775 1e-05
-0.00265386 0.00242121 1e-05
-0.00247443 0.00240315 1e-05
-0.0023027 0.00238426 1e-05
-0.00213114 0.00236385 1e-05
-0.00195982 0.00234155 1e-05
-0.00178875 0.00231739 1e-05
-0.00161577 0.00229106 1e-05
-0.00161567 0.00229105 1e-05
-0.00161556 0.00229103 1e-05
-0.00161546 0.00229101 1e-05
-0.00161535 0.00229099 1e-05
-0.00161525 0.00229098 1e-05
-0.00145048 0.00226407 1e-05
-0.00128612 0.00223481 1e-05
-0.00112218 0.00220326 1e-05
-0.000958687 0.00216947 1e-05
-0.000791418 0.00213237 1e-05
-0.000633135 0.00209426 1e-05
-0.000475556 0.00205333 1e-05
-0.000318719 0.00200965 1e-05
-0.000162835 0.00196268 1e-05
0 0.00190952 1e-05
3.73445e-05 0.00189632 1e-05
7.4589e-05 0.00188284 1e-05
0.000111735 0.00186909 1e-05
0.000148784 0.00185508 1e-05
0.000179096 0.00184338 1e-05
0.000248954 0.00181594 1e-05
0.000318402 0.00178748 1e-05
0.000387424 0.001758 1e-05
0.000456006 0.00172752 1e-05
0.000528387 0.00169414 1e-05
0.000634886 0.00164316 1e-05
0.000740278 0.00158993 1e-05
0.00084451 0.00153446 1e-05
0.00094762 0.00147694 1e-05
0.00101989 0.00143469 1e-05
0.00102809 0.00142973 1e-05
0.00103628 0.00142476 1e-05
0.00104446 0.00141978 1e-05
0.00105263 0.00141477 1e-05
0.00106088 0.0014097 1e-05
0.00116821 0.00134352 1e-05
0.00127404 0.00127496 1e-05
0.00137827 0.001204 1e-05
0.00148099 0.00113087 1e-05
0.00159669 0.00104511 1e-05
0.00159686 0.00104498 1e-05
0.00159702 0.00104485 1e-05
0.00159719 0.00104472 1e-05
0.00159735 0.00104459 1e-05
0.00159752 0.00104447 1e-05
0.00169218 0.000970898 1e-05
0.00178544 0.000895562 1e-05
0.00187723 0.000818429 1e-05
0.00196759 0.000739641 1e-05
0.00203798 0.000676367 1e-05
0.00205805 0.000657874 1e-05
0.00207804 0.000639292 1e-05
0.00209794 0.00062062 1e-05
0.00211778 0.000601885 1e-05
0.00213833 0.000582367 1e-05
0.00219146 0.000531552 1e-05
0.00224409 0.000480221 1e-05
0.00229621 0.000428365 1e-05
0.00234779 0.000375978 1e-05
0.00239408 0.000328255 1e-05
0.00245193 0.000267789 1e-05
0.00250915 0.000206723 1e-05
0.00256574 0.000145075 1e-05
0.00262182 8.29593e-05 1e-05
0.00268334 1.36299e-05 1e-05
0.00268571 1.09039e-05 1e-05
0.00268808 8.1769e-06 1e-05
0.00269045 5.44891e-06 1e-05
0.00269282 2.71991e-06 1e-05
0.00269518 0 1e-05
0.00275907 -7.37368e-05 1e-05
0.00282235 -0.000148005 1e-05
0.00288499 -0.000222813 1e-05
0.00294697 -0.000298173 1e-05
0.00300404 -0.000368654 1e-05
0.00304975 -0.00042594 1e-05
0.00309515 -0.000483472 1e-05
0.00314024 -0.000541246 1e-05
0.00318508 -0.000599215 1e-05
0.00323259 -0.000661198 1e-05
0.00325063 -0.000684977 1e-05
0.00326862 -0.000708796 1e-05
0.00328656 -0.000732655 1e-05
0.00330444 -0.000756554 1e-05
0.00332198 -0.00078009 1e-05
0.00339012 -0.000871877 1e-05
0.00345766 -0.000964107 1e-05
0.00352458 -0.00105679 1e-05
0.00359096 -0.00114986 1e-05
0.00365382 -0.00123896 1e-05
0.00368028 -0.00127686 1e-05
0.00370666 -0.00131481 1e-05
0.00373297 -0.00135281 1e-05
0.00375922 -0.00139085 1e-05
0.00378611 -0.00142992 1e-05
0.00383009 -0.00149403 1e-05
0.00387385 -0.00155829 1e-05
0.00391739 -0.00162269 1e-05
0.00396071 -0.00168725 1e-05
0.00400286 -0.00175044 1e-05
0.00407107 -0.00185328 1e-05
0.00413887 -0.00195639 1e-05
0.00420624 -0.00205978 1e-05
0.00427333 -0.00216336 1e-05
0.00434393 -0.00227305 1e-05
0.00434997 -0.0022825 1e-05
0.00435601 -0.00229195 1e-05
0.00436205 -0.00230141 1e-05
0.00436808 -0.00231087 1e-05
0.00437409 -0.0023203 1e-05
0.00445494 -0.00244725 1e-05
0.00453533 -0.00257449 1e-05
0.00461533 -0.00270197 1e-05
0.00469498 -0.00282968 1e-05
0.00477285 -0.00295498 1e-05
0.0047995 -0.002998 1e-05
0.00482612 -0.00304105 1e-05
0.00485272 -0.00308411 1e-05
0.0048793 -0.00312717 1e-05
0.00490609 -0.00317056 1e-05
0.00496672 -0.00326877 1e-05
0.0050272 -0.00336708 1e-05
0.00508753 -0.00346548 1e-05
0.00514773 -0.00356396 1e-05
0.00520738 -0.00366161 1e-05
0.00526043 -0.00374852 1e-05
0.00531343 -0.00383546 1e-05
0.0053664 -0.00392242 1e-05
0.0054194 -0.00400937 1e-05
0.00547262 -0.00409658 1e-05
0.00551559 -0.00416688 1e-05
0.00555853 -0.00423721 1e-05
0.00560143 -0.00430756 1e-05
0.00564432 -0.00437792 1e-05
0.00568714 -0.00444811 1e-05
0.00575842 -0.00456486 1e-05
0.00582975 -0.00468158 1e-05
0.00590113 -0.00479828 1e-05
0.00597264 -0.00491488 1e-05
0.00604356 -0.00503006 1e-05
0.00607981 -0.0050887 1e-05
0.00611607 -0.00514733 1e-05
0.00615233 -0.00520596 1e-05
0.00618863 -0.00526458 1e-05
0.00622502 -0.00532326 1e-05
0.00630381 -0.00545003 1e-05
0.00638278 -0.00557669 1e-05
0.00646194 -0.00570322 1e-05
0.00654138 -0.00582958 1e-05
0.00661893 -0.00595212 1e-05
0.00666283 -0.00602104 1e-05
0.00670677 -0.00608992 1e-05
0.00675077 -0.00615877 1e-05
0.00679486 -0.00622756 1e-05
0.00683932 -0.00629671 1e-05
0.00691121 -0.00640813 1e-05
0.00698336 -0.00651938 1e-05
0.00705576 -0.00663047 1e-05
0.00712846 -0.00674136 1e-05
0.00719878 -0.00684784 1e-05
0.00726946 -0.00695408 1e-05
0.00734036 -0.00706017 1e-05
0.00741149 -0.00716611 1e-05
0.00748293 -0.00727184 1e-05
0.00755589 -0.00737909 1e-05
0.00760134 -0.00744541 1e-05
0.00764692 -0.00751164 1e-05
0.00769262 -0.00757778 1e-05
0.00773846 -0.00764383 1e-05
0.00778313 -0.00770788 1e-05
0.00790091 -0.00787585 1e-05
0.00801946 -0.00804329 1e-05
0.00813878 -0.00821017 1e-05
0.0082591 -0.00837633 1e-05
0.00837203 -0.00853024 1e-05
0.00837972 -0.00854057 1e-05
0.0083874 -0.0085509 1e-05
0.00839509 -0.00856122 1e-05
0.00840278 -0.00857155 1e-05
0.0084105 -0.00858189 1e-05
0.0085215 -0.00873057 1e-05
0.00863333 -0.00887862 1e-05
0.00874599 -0.00902604 1e-05
0.00885953 -0.00917279 1e-05
0.00896551 -0.00930792 1e-05
0.00903009 -0.0093892 1e-05
0.00909494 -0.00947027 1e-05
0.00916005 -0.00955113 1e-05
0.00922546 -0.00963174 1e-05
0.00929304 -0.00971438 1e-05
0.00934715 -0.00978003 1e-05
0.00940146 -0.00984551 1e-05
0.00945596 -0.00991083 1e-05
0.00951066 -0.00997598 1e-05
0.0095636 -0.0100386 1e-05
[...]
POINT_DATA 12278
 FIELD attributes 2
p 1 12278 float
177014 177096 177168 177232 177286 177330
108947 108966 108982 108996 109008 109019
87754.1 87763.7 87773 87782.2 87791.2 87799.6
79936.4 79942.7 79948.9 79955.1 79961.1 79967.1
77145.5 77154.7 77163.9 77173.2 77182.4 77191.6
77562.9 77576.5 77590 77603.6 77617.1 77630.7
81096.1 81108.5 81120.7 81132.8 81144.7 81156.5
90922.5 90942.3 90961.3 90979.6 90997.2 91014.1
117354 117387 117418 117446 117472 117496
215473 215284 215092 214898 214701 214503
177014 173409 169082 164503 162837 158905 155523 152872 144707 134666 129223 123794 119856 119245 118393 112348 106448 102327 101431 100565 99582.4 98600.2 97173.6 95705.3 93989.7 93623.2 93256.2 92888.6 92407.6 91909.9 89990.4 88186.4 86672.5 85885.1 85108.4 84422.6 83757.8 83108 82456.2 81622.3 81587.4 81558.5 81530.4 81502.4 81473.6 80940.8 80408.5 79876.7 79345.4 78920.3 78494.1 78084.9 77687.2 77311.6 76945.7 76595.7 76245.4 75921.7 75620.2 75319.2 75029.7 74740 74461.5 74198.7 73936.1 73682.4 73428.7 73178.6 72942.4 72706.4 72477.5 72248.6 72018 71798.6 71579.4 71365.7 71152.2 70933.5 70722.7 70512 70304.9 70098 69885 69672.6 69460.4 69248.5 69037 68821.9 68593.8 68366.2 68133.3 67897.6 67653.5 67400.9 67135 66854.7 66541 66228.8 65918.2 65605.2 65604.9 65604.7 65604.4 65604.1 65603.8 65212.6 64827.1 64447.2 64049.1 63569 63053.5 62543.8 61842.7 61069.6 60256.5 60008.2 59770.3 59543.2 59316.7 59131.4 58574.5 58015.4 57454.3 56981 56512.7 55908.1 55305.4 54765.6 54224.5 53840 53781.8 53723.7 53668.3 53620.7 53572.5 53019.3 52459 51941 51468.6 50923.2 50922.2 50921.1 50920.2 50919.4 50918.6 50491.5 50056.9 49654.4 49318.9 49049.9 48950.7 48851 48780.1 48710.4 48637.8 48449.4 48258.6 48066 47921.6 47789.5 47616.8 47448.1 47308.4 47166.7 47007.4 47001 46994.6 46988.2 46982.4 46976.9 46871.5 46759.3 46644.5 46531.2 46424.3 46388.7 46351.9 46312.4 46272 46228.2 46208.1 46187.8 46167.4 46146.2 46125.1 46099.8 46073 46036 45993.7 45952.1 45954.6 45956.7 45956 45955.2 45954.2 45942.9 45931.2 45919.1 45904 45888.8 45898.6 45907.7 45912.2 45916.2 45919.9 45919.1 45918.2 45917.4 45916.3 45915.3 45928.8 45942.4 45955.1 45965.8 45976.1 45986.4 45996.6 46006.4 46016.2 46025.9 46037.5 46048.8 46060.1 46071.1 46082.1 46100.5 46118.9 46137.4 46155.9 46174.5 46183.1 46191.6 46200.3 46209.4 46218.5 46241.2 46264 46287.3 46311.2 46335 46342.4 46349.8 46357.6 46365.8 46374.1 46397.3 46420.6 46444.8 46470 46494.8 46503.7 46512.6 46522.3 46532.5 46542.8 46562.5 46582.2 46602.6 46624.5 46645.7 46659.6 46673.6 46689.3 46705.6 46722.3 46733.8 46745.4 46757.1 46769.8 46782.1 46804.1 46826.2 46851.7 46877.9 46903.8 46904.9 46906 46907.4 46908.8 46910.2 46931.4 46952.8 46974.5 46998.4 47020.8 47030.3 47039.9 47050.9 47062 47073.4 47083.1 47092.9 47102.6 47113.1 47123.2 47140.4 47157.7 47176.7 47196.5 47215.9 47218.5 47221.1 47224.1 47227 47230 47244.3 47258.8 47273.3 47288.9 47303.8 47317.6 47331.8 47347.2 47362.8 47379.7 47379.8 47379.9 47379.9 47380 47380.1 47394.7 47409.4 47424.3 47440.2 47455.4 47467.4 47480 47493.6 47507.3 47520.4 47521 47521.7 47522.4 47523 47523.7 47535.5 47547.4 47559.3 47571.9 47584.4 47594.7 47605 47616.6 47628.8 47640.8 47644.9 47649.3 47653.9 47658.6 47663.5 47669.3 47675.2 47681.1 47687.2 47693.6 47702.4 47711.5 47721.3 47732.2 47742.6 47750.2 47758.3 47767.2 47776.2 47785.3 47787.5 47789.9 47792.4 47795 47797.6 47803 47808.3 47813.7 47819.2 47825.3 47831.5 47838.1 47845 47853 47860.9 47865.9 47871 47877.2 47883.9 47890.6 47894.2 47898.9 47903.5 47908.2 47913.5 47913.7 47914 47914.2 47914.5 47914.8 47918.9 47923 47927.2 47931.3 47936.4 47938.7 47941.3 47944.2 47948.1 47952 47953.1 47954.2 47956.1 47958.9 47961.6 47961.5 47962 47962.9 47963.8 47965.2 47964.4 47964.1 47963.8 47963.5 47963.2 47963.1 47963.1 47963.1 47963.1 47963.1 47961.7 47960.4 47959.1 47957.7 47956.9 47953.7 47951.2 47948.6 47946.3 47944.5 47940.2 47935.9 47932.1 47929.1 47926 47920.5 47915 47910 47905.8 47901.5 47894.9 47888.3 47882.2 47876.5 47871 47863.3 47855.9 47848.7 47841.4 47834.8 47826 47817.7 47809.3 47800.9 47792.8 47784.2 47775.8 47767.3 47758.9 47749 47748.3 47747.5 47746.8 47746 47745.3 47734.9 47724.4 47714 47703.5 47693.2 47681.4 47670 47658.5 47646.9 47635.7 47622.7 47610.2 47597.7 47585.2 47572.9 47559 47545.4 47531.9 47518.5 47505.2 47490.4 47475.6 47461.2 47446.9 47432.7 47417 47401.2 47385.9 47370.7 47355.6 47339 47322.4 47306.2 47290.1 47274 47256.7 47239.4 47222.2 47205.3 47188.3 47170.2 47152.1 47134.1 47116.4 47098.6 47079.8 47061 47042.2 47023.6 47005.2 46985.7 46966.2 46946.6 46927.3 46908.1 46888 46867.8 46847.6 46827.5 46807.6 46786.9 46766.1 46745.3 46724.5 46704 46682.7 46661.3 46639.8 46618.4 46597.3 46575.4 46553.5 46531.5 46509.5 46487.7 46465.4 46442.9 46420.4 46397.8 46375.5 46352.7 46329.7 46306.7 46283.6 46260.8 46237.5 46214 46190.5 46167.1 46143.7 46120 46096 46072.1 46048.2 46024.4 46000.2 45975.9 45951.6 45927.3 45903 45878.5 45853.8 45829.1 45804.4 45779.7 45754.8 45729.7 45704.6 45679.6 45654.6 45629.2 45603.8 45578.4 45553 45527.7 45502 45476.3 45450.6 45424.9 45399.2 45373.2 45347.2 45321.2 45295.2 45269.2 45243 45216.7 45190.4 45164.1 45137.8 45111.3 45084.7 45058.1 45031.6 45005 44978.2 44951.4 44924.6 44897.8 44871 44843.9 44816.9 44789.8 44762.8 44735.7 44708.4 44681.2 44653.9 44626.6 44599.3 44571.8 44544.3 44516.8 44489.3 44461.8 44434.1 44406.4 44378.7 44351 44323.3 44295.4 44267.5 44239.6 44211.6 44183.7 44155.6 44127.5 44099.4 44071.3 44043.2 44014.9 43986.6 43958.4 43930.1 43901.8 43873.3 43844.8 43816.3 43787.9 43759.4 43730.8 43702.1 43673.4 43644.8 43616.1 43587.3 43558.5 43529.6 43500.8 43472 43443 43414 43385 43356 43327 43297.8 43268.6 43239.4 43210.3 43181.1 43151.8 43122.4 43093.1 43063.7 43034.3 43004.9 42975.3 42945.8 42916.3 42886.8 42857.1 42827.4 42797.7 42768 42738.3 42708.5 42678.6 42648.8 42618.9 42589 42559 42529 42498.9 42468.9 42438.8 42408.7 42378.4 42348.2 42318 42287.8 42257.4 42227 42196.7 42166.3 42135.9 42105.3 42074.8 42044.2 42013.6 41983 41952.3 41921.6 41890.8 41860.1 41829.3 41798.4 41767.4 41736.5 41705.6 41674.6 41643.5 41612.4 41581.3 41550.2 41519 41487.7 41456.4 41425.1 41393.8 41362.4 41331 41299.5 41267.9 41236.4 41204.9 41173.2 41141.5 41109.8 41078.1 41046.3 41014.5 40982.6 40950.6 40918.7 40886.8 40854.7 40822.6 40790.5 40758.4 40726.2 40693.9 40661.6 40629.2 40596.9 40564.5 40532.1 40499.5 40467 40434.4 40401.8 40369.1 40336.4 40303.6 40270.8 40238 40205.1 40172.1 40139.1 40106.1 40073.1 40039.9 40006.7 39973.5 39940.3 39907 39873.7 39840.2 39806.8 39773.3 39739.8 39706.2 39672.5 39638.9 39605.2 39571.5 39537.6 39503.7 39469.8 39435.9 39401.9 39367.8 39333.6 39299.5 39265.3 39231.1 39196.8 39162.4 39128 39093.6 39059.1 39024.5 38989.9 38955.2 38920.6 38885.9 38851 38816.1 38781.2 38746.3 38711.3 38676.3 38641.1 38605.9 38570.8 38535.5 38500.2 38464.8 38429.4 38393.9 38358.4 38322.8 38287.2 38251.5 38215.8 38180 38144.2 38108.2 38072.3 38036.3 38000.3 37964.1 37927.9 37891.7 37855.5 37819.2 37782.8 37746.3 37709.8 37673.3 37636.7 37600 37563.3 37526.5 37489.7 37452.9 37415.9 37378.9 37341.8 37304.8 37267.6 37230.4 37193.1 37155.7 37118.4 37081 37043.4 37005.9 36968.2 36930.6 36892.9 36855.1 36817.2 36779.3 36741.4 36703.4 36665.3 36627.1 36588.9 36550.7 36512.4 36474 36435.5 36397 36358.5 36319.9 36281.2 36242.5 36203.7 36164.9 36126 36087 36048 36008.9 35969.7 35930.6 35891.3 35851.9 35812.5 35773.1 35733.6 35694 35654.4 35614.7 35574.9 35535.2 35495.2 35455.3 35415.3 35375.2 35335.2 35294.9 35254.7 35214.3 35174 35133.6 35093.1 35052.5 35011.9 34971.2 34930.5 34889.6 34848.7 34807.8 34766.8 34725.8 34684.6 34643.4 34602.1 34560.8 34519.5 34478 34436.4 34394.9 34353.2 34311.6 34269.7 34227.9 34186 34144 34102.1 34059.9 34017.7 33975.5 33933.2 33890.9 33848.4 33805.9 33763.4 33720.8 33678.1 33635.3 33592.5 33549.6 33506.6 33463.7 33420.5 33377.4 33334.1 33290.9 33247.5 33204.1 33160.6 33117 33073.4 33029.8 32985.9 32942.1 32898.2 32854.2 32810.3 32766.1 32721.9 32677.7 32633.4 32589.1 32544.5 32500 32455.5 32410.8 32366.1 32321.3 32276.4 32231.5 32186.5 32141.5 32096.3 32051.1 32005.8 31960.4 31915 31869.5 31823.9 31778.3 31732.6 31686.9 31641 31595 31549.1 31503 31456.9 31410.7 31364.4 31318 31271.6 31225.2 31178.5 31131.9 31085.2 31038.4 30991.6 30944.6 30897.6 30850.6 30803.4 30756.3 30708.9 30661.5 30614.1 30566.6 30519.1 30471.3 30423.6 30375.8 30327.9 30280 30231.9 30183.8 30135.6 30087.3 30039.1 29990.6 29942.1 29893.6 29844.9 29796.3 29747.4 29698.6 29649.6 29600.6 29551.6 29502.3 29453.1 29403.8 29354.4 29305 29255.3 29205.7 29156 29106.2 29056.4 29006.4 28956.4 28906.3 28856.1 28805.9 28755.5 28705.1 28654.6 28604 28553.4 28502.6 28451.8 28400.9 28349.9 28299 28247.7 28196.5 28145.2 28093.8 28042.5 27990.8 27939.2 27887.5 27835.7 27783.9 27731.9 27679.9 27627.7 27575.5 27523.3 27470.9 27418.4 27365.9 27313.3 27260.7 27207.8 27154.9 27101.9 27048.9 26995.9 26942.6 26889.3 26835.9 26782.4 26729 26675.2 26621.5 26567.7 26513.8 26460 26405.8 26351.6 26297.4 26243.1 26188.8 26134.3 26079.7 26025.1 25970.4 25915.7 25860.7 25805.7 25750.7 25695.7 25640.6 25585.2 25529.9 25474.6 25419.2 25363.8 25308.1 25252.5 25196.9 25141.3 25085.6 25029.7 24973.9 24918.2 24862.5 24806.7 24750.8 24695 24639.4 24583.7 24528 24472.3 24417 24361.9 24306.8 24252.1 24197.4 24142.5 24087.5 24032.5 23977.1 23922.4 23873.7 23825.1 23776.5 23732.7 23683.5 23618.2 23552.7 23487.2 23412.7 23361.5 23331.1 23301.1 23271.3 23257.1 23252.9 23248.8 23244.6 23240.5 23238.9 23236.3 23231 23225.8 23220.5 23214.8 23187.8 23160.6 23133.2 23105.5 23061.9 22986 22917 22848.1 22779.2 22722.9 22671.8 22615.5 22559.1 22502.8 22440.1 22372.3 22304.3 22236.2 22168.1 22099.6 22028.3 21955.1 21881.8 21808.6 21733.2 21655 21575.2 21495.4 21415.6 21334.2 21249.9 21163.8 21077.6 20991.5 20903.5 20812.5 20719.6 20626.6 20533.6 20438.8 20340.7 20240.5 20140.2 20039.8 19937.5 19831.6 19723.4 19615.1 19506.7 19396.2 19281.9 19164.8 19047.6 18930.3 18810.5 18686.5 18559.8 18432.9 18305.8 18176.4 18042.3 17904.4 17766.2 17627.9 17486 17339.1 17189.4 17039.5 16889.6 16737.3 16579.5 16414.9 16250 16084.8 15913.3 15735.6 15557.4 15379.3 15201.1 15023 14838.4 14638.9 14438.5 14237.5 14022.2 13799 13585.9 13373.4 13161.5 12960.1 12751.3 12503.8 12254 12002.1 11712.8 11412.7 11157.3 10904.8 10655 10450.3 10237.7 9921.73 9598.15 9265.99 8833.31 8384.33 8071.57 7773.96 7494.37 7349.27 7198.23 6801.75 6357.29 5839.05 5089.68 4311.4 3779.24 3398.32 3250.96 3316.68 3382.99 3362.03 2777.15 1388.16 0