# vtk DataFile Version 2.0
track0
ASCII
DATASET POLYDATA
POINTS 12278 float
-0.0205 0.001 1e-05
-0.02052 0.000999216 1e-05
-0.02054 0.000998592 1e-05
-0.02056 0.000998126 1e-05
-0.02058 0.000997818 1e-05
-0.0206 0.000997665 1e-05
-0.0205 0.00367778 1e-05
-0.02052 0.00367703 1e-05
-0.02054 0.00367643 1e-05
-0.02056 0.00367599 1e-05
-0.02058 0.00367569 1e-05
-0.0206 0.00367554 1e-05
-0.0205 0.00635556 1e-05
-0.02052 0.00635527 1e-05
-0.02054 0.00635505 1e-05
-0.02056 0.00635488 1e-05
-0.02058 0.00635476 1e-05
-0.0206 0.00635471 1e-05
-0.0205 0.00903333 1e-05
-0.02052 0.00903311 1e-05
-0.02054 0.00903293 1e-05
-0.02056 0.0090328 1e-05
-0.02058 0.00903271 1e-05
-0.0206 0.00903266 1e-05
-0.0205 0.0117111 1e-05
-0.02052 0.0117111 1e-05
-0.02054 0.011711 1e-05
-0.02056 0.011711 1e-05
-0.02058 0.011711 1e-05
-0.0206 0.011711 1e-05
-0.0205 0.0143889 1e-05
-0.02052 0.014389 1e-05
-0.02054 0.014389 1e-05
-0.02056 0.0143891 1e-05
-0.02058 0.0143891 1e-05
-0.0206 0.0143891 1e-05
-0.0205 0.0170667 1e-05
-0.02052 0.017067 1e-05
-0.02054 0.0170672 1e-05
-0.02056 0.0170674 1e-05
-0.02058 0.0170675 1e-05
-0.0206 0.0170676 1e-05
-0.0205 0.0197444 1e-05
-0.02052 0.019745 1e-05
-0.02054 0.0197454 1e-05
-0.02056 0.0197457 1e-05
-0.02058 0.0197459 1e-05
-0.0206 0.019746 1e-05
-0.0205 0.0224222 1e-05
-0.02052 0.022423 1e-05
-0.02054 0.0224236 1e-05
-0.02056 0.0224241 1e-05
-0.02058 0.0224244 1e-05
-0.0206 0.0224245 1e-05
-0.0205 0.0251 1e-05
-0.02052 0.0251003 1e-05
-0.02054 0.0251005 1e-05
-0.02056 0.0251007 1e-05
-0.02058 0.0251008 1e-05
-0.0206 0.0251008 1e-05
-0.0205 0.001 1e-05
-0.0203632 0.00100536 1e-05
-0.0202266 0.00101331 1e-05
-0.0200901 0.00102296 1e-05
-0.0200427 0.00102682 1e-05
-0.0198376 0.00104418 1e-05
-0.0196338 0.00107322 1e-05
-0.0194327 0.00111734 1e-05
-0.0192368 0.00118024 1e-05
-0.0190172 0.00124951 1e-05
-0.0189002 0.00128348 1e-05
-0.0187827 0.00131598 1e-05
-0.0186649 0.001347 1e-05
-0.0185469 0.001377 1e-05
-0.0183807 0.00141936 1e-05
-0.0182041 0.00146458 1e-05
-0.0180267 0.00150692 1e-05
-0.0178487 0.0015464 1e-05
-0.0176703 0.00158389 1e-05
-0.0174976 0.00161991 1e-05
-0.0172846 0.00166394 1e-05
-0.0170715 0.00170741 1e-05
-0.0168583 0.00175029 1e-05
-0.0166449 0.00179219 1e-05
-0.0163945 0.00184007 1e-05
-0.0163234 0.00185324 1e-05
-0.0162522 0.00186629 1e-05
-0.016181 0.00187921 1e-05
-0.0161097 0.00189201 1e-05
-0.0160387 0.0019046 1e-05
-0.0157586 0.0019535 1e-05
-0.0154779 0.00199931 1e-05
-0.0151968 0.00204225 1e-05
-0.0149154 0.00208283 1e-05
-0.0146381 0.00212134 1e-05
-0.0143838 0.00215527 1e-05
-0.0141293 0.00218766 1e-05
-0.0138747 0.00221855 1e-05
-0.0136198 0.00224797 1e-05
-0.0132934 0.00228369 1e-05
-0.0132791 0.00228515 1e-05
-0.0132648 0.0022866 1e-05
-0.0132504 0.00228805 1e-05
-0.0132361 0.0022895 1e-05
-0.0132214 0.00229098 1e-05
-0.0129776 0.00231543 1e-05
-0.0127337 0.00233865 1e-05
-0.0124897 0.00236061 1e-05
-0.0122456 0.00238129 1e-05
-0.0120025 0.00240058 1e-05
-0.0117547 0.00241909 1e-05
-0.0115067 0.00243627 1e-05
-0.0112587 0.00245231 1e-05
-0.0110106 0.00246734 1e-05
-0.0107632 0.00248136 1e-05
-0.0105252 0.00249391 1e-05
-0.0102872 0.00250547 1e-05
-0.0100491 0.00251602 1e-05
-0.00981105 0.00252575 1e-05
-0.00957337 0.00253471 1e-05
-0.00934491 0.00254261 1e-05
-0.00911643 0.00254974 1e-05
-0.00888792 0.0025561 1e-05
-0.0086594 0.00256171 1e-05
-0.00843108 0.00256668 1e-05
-0.00821175 0.00257085 1e-05
-0.00799241 0.00257439 1e-05
-0.00777306 0.00257731 1e-05
-0.0075537 0.00257953 1e-05
-0.00733443 0.00258114 1e-05
-0.00712387 0.00258213 1e-05
-0.0069133 0.00258256 1e-05
-0.00670273 0.00258243 1e-05
-0.00649216 0.00258162 1e-05
-0.0062816 0.00258018 1e-05
-0.00607944 0.00257819 1e-05
-0.0058773 0.00257566 1e-05
-0.00567516 0.00257257 1e-05
-0.00547303 0.00256875 1e-05
-0.00527083 0.00256419 1e-05
-0.00507675 0.00255913 1e-05
-0.00488269 0.00255343 1e-05
-0.00468865 0.00254711 1e-05
-0.00449464 0.00253998 1e-05
-0.00430044 0.00253191 1e-05
-0.00411412 0.00252329 1e-05
-0.00392784 0.00251388 1e-05
-0.00374159 0.00250369 1e-05
-0.0035554 0.00249255 1e-05
-0.00336883 0.00248016 1e-05
-0.00318995 0.00246712 1e-05
-0.00301115 0.002453 1e-05
-0.00283245 0.00243775 1e-05
-0.00265386 0.00242121 1e-05
-0.00247443 0.00240315 1e-05
-0.0023027 0.00238426 1e-05
-0.00213114 0.00236385 1e-05
-0.00195982 0.00234155 1e-05
-0.00178875 0.00231739 1e-05
-0.00161577 0.00229106 1e-05
-0.00161567 0.00229105 1e-05
-0.00161556 0.00229103 1e-05
-0.00161546 0.00229101 1e-05
-0.00161535 0.00229099 1e-05
-0.00161525 0.00229098 1e-05
-0.00145048 0.00226407 1e-05
-0.00128612 0.00223481 1e-05
-0.00112218 0.00220326 1e-05
-0.000958687 0.00216947 1e-05
-0.000791418 0.00213237 1e-05
-0.000633135 0.00209426 1e-05
-0.000475556 0.00205333 1e-05
-0.000318719 0.00200965 1e-05
-0.000162835 0.00196268 1e-05
0 0.00190952 1e-05
3.73445e-05 0.00189632 1e-05
7.4589e-05 0.00188284 1e-05
0.000111735 0.00186909 1e-05
0.000148784 0.00185508 1e-05
0.000179096 0.00184338 1e-05
0.000248954 0.00181594 1e-05
0.000318402 0.00178748 1e-05
0.000387424 0.001758 1e-05
0.000456006 0.00172752 1e-05
0.000528387 0.00169414 1e-05
0.000634886 0.00164316 1e-05
0.000740278 0.00158993 1e-05
0.00084451 0.00153446 1e-05
0.00094762 0.00147694 1e-05
0.00101989 0.00143469 1e-05
0.00102809 0.00142973 1e-05
0.00103628 0.00142476 1e-05
0.00104446 0.00141978 1e-05
0.00105263 0.00141477 1e-05
0.00106088 0.0014097 1e-05
0.00116821 0.00134352 1e-05
0.00127404 0.00127496 1e-05
0.00137827 0.001204 1e-05
0.00148099 0.00113087 1e-05
0.00159669 0.00104511 1e-05
0.00159686 0.00104498 1e-05
0.00159702 0.00104485 1e-05
0.00159719 0.00104472 1e-05
0.00159735 0.00104459 1e-05
0.00159752 0.00104447 1e-05
0.00169218 0.000970898 1e-05
0.00178544 0.000895562 1e-05
0.00187723 0.000818429 1e-05
0.00196759 0.000739641 1e-05
0.00203798 0.000676367 1e-05
0.00205805 0.000657874 1e-05
0.00207804 0.000639292 1e-05
0.00209794 0.00062062 1e-05
0.00211778 0.000601885 1e-05
0.00213833 0.000582367 1e-05
0.00219146 0.000531552 1e-05
0.00224409 0.000480221 1e-05
0.00229621 0.000428365 1e-05
0.00234779 0.000375978 1e-05
0.00239408 0.000328255 1e-05
0.00245193 0.000267789 1e-05
0.00250915 0.000206723 1e-05
0.00256574 0.000145075 1e-05
0.00262182 8.29593e-05 1e-05
0.00268334 1.36299e-05 1e-05
0.00268571 1.09039e-05 1e-05
0.00268808 8.1769e-06 1e-05
0.00269045 5.44891e-06 1e-05
0.00269282 2.71991e-06 1e-05
0.00269518 0 1e-05
0.00275907 -7.37368e-05 1e-05
0.00282235 -0.000148005 1e-05
0.00288499 -0.000222813 1e-05
0.00294697 -0.000298173 1e-05
0.00300404 -0.000368654 1e-05
0.00304975 -0.00042594 1e-05
0.00309515 -0.000483472 1e-05
0.00314024 -0.000541246 1e-05
0.00318508 -0.000599215 1e-05
0.00323259 -0.000661198 1e-05
0.00325063 -0.000684977 1e-05
0.00326862 -0.000708796 1e-05
0.00328656 -0.000732655 1e-05
0.00330444 -0.000756554 1e-05
0.00332198 -0.00078009 1e-05
0.00339012 -0.000871877 1e-05
0.00345766 -0.000964107 1e-05
0.00352458 -0.00105679 1e-05
0.00359096 -0.00114986 1e-05
0.00365382 -0.00123896 1e-05
0.00368028 -0.00127686 1e-05
0.00370666 -0.00131481 1e-05
0.00373297 -0.00135281 1e-05
0.00375922 -0.00139085 1e-05
0.00378611 -0.00142992 1e-05
0.00383009 -0.00149403 1e-05
0.00387385 -0.00155829 1e-05
0.00391739 -0.00162269 1e-05
0.00396071 -0.00168725 1e-05
0.00400286 -0.00175044 1e-05
0.00407107 -0.00185328 1e-05
0.00413887 -0.00195639 1e-05
0.00420624 -0.00205978 1e-05
0.00427333 -0.00216336 1e-05
0.00434393 -0.00227305 1e-05
0.00434997 -0.0022825 1e-05
0.00435601 -0.00229195 1e-05
0.00436205 -0.00230141 1e-05
0.00436808 -0.00231087 1e-05
0.00437409 -0.0023203 1e-05
0.00445494 -0.00244725 1e-05
0.00453533 -0.00257449 1e-05
0.00461533 -0.00270197 1e-05
0.00469498 -0.00282968 1e-05
0.00477285 -0.00295498 1e-05
0.0047995 -0.002998 1e-05
0.00482612 -0.00304105 1e-05
0.00485272 -0.00308411 1e-05
0.0048793 -0.00312717 1e-05
0.00490609 -0.00317056 1e-05
0.00496672 -0.00326877 1e-05
0.0050272 -0.00336708 1e-05
0.00508753 -0.00346548 1e-05
0.00514773 -0.00356396 1e-05
0.00520738 -0.00366161 1e-05
0.00526043 -0.00374852 1e-05
0.00531343 -0.00383546 1e-05
0.0053664 -0.00392242 1e-05
0.0054194 -0.00400937 1e-05
0.00547262 -0.00409658 1e-05
0.00551559 -0.00416688 1e-05
0.00555853 -0.00423721 1e-05
0.00560143 -0.00430756 1e-05
0.00564432 -0.00437792 1e-05
0.00568714 -0.00444811 1e-05
0.00575842 -0.00456486 1e-05
0.00582975 -0.00468158 1e-05
0.00590113 -0.00479828 1e-05
0.00597264 -0.00491488 1e-05
0.00604356 -0.00503006 1e-05
0.00607981 -0.0050887 1e-05
0.00611607 -0.00514733 1e-05
0.00615233 -0.00520596 1e-05
0.00618863 -0.00526458 1e-05
0.00622502 -0.00532326 1e-05
0.00630381 -0.00545003 1e-05
0.00638278 -0.00557669 1e-05
0.00646194 -0.00570322 1e-05
0.00654138 -0.00582958 1e-05
0.00661893 -0.00595212 1e-05
0.00666283 -0.00602104 1e-05
0.00670677 -0.00608992 1e-05
0.00675077 -0.00615877 1e-05
0.00679486 -0.00622756 1e-05
0.00683932 -0.00629671 1e-05
0.00691121 -0.00640813 1e-05
0.00698336 -0.00651938 1e-05
0.00705576 -0.00663047 1e-05
0.00712846 -0.00674136 1e-05
0.00719878 -0.00684784 1e-05
0.00726946 -0.00695408 1e-05
0.00734036 -0.00706017 1e-05
0.00741149 -0.00716611 1e-05
0.00748293 -0.00727184 1e-05
0.00755589 -0.00737909 1e-05
0.00760134 -0.00744541 1e-05
0.00764692 -0.00751164 1e-05
0.00769262 -0.00757778 1e-05
0.00773846 -0.00764383 1e-05
0.00778313 -0.00770788 1e-05
0.00790091 -0.00787585 1e-05
0.00801946 -0.00804329 1e-05
0.00813878 -0.00821017 1e-05
0.0082591 -0.00837633 1e-05
0.00837203 -0.00853024 1e-05
0.00837972 -0.00854057 1e-05
0.0083874 -0.0085509 1e-05
0.00839509 -0.00856122 1e-05
0.00840278 -0.00857155 1e-05
0.0084105 -0.00858189 1e-05
0.0085215 -0.00873057 1e-05
0.00863333 -0.00887862 1e-05
0.00874599 -0.00902604 1e-05
0.00885953 -0.00917279 1e-05
0.00896551 -0.00930792 1e-05
0.00903009 -0.0093892 1e-05
0.00909494 -0.00947027 1e-05
0.00916005 -0.00955113 1e-05
0.00922546 -0.00963174 1e-05
0.00929304 -0.00971438 1e-05
0.00934715 -0.00978003 1e-05
0.00940146 -0.00984551 1e-05
0.00945596 -0.00991083 1e-05
0.00951066 -0.00997598 1e-05
0.0095636 -0.0100386 1e-05
[...]
POINT_DATA 12278
 FIELD attributes 1
U 3 12278 float
9.72339 	0.381311 	0 9.77871 	0.305049 	0 9.83405 	0.228765 	0 9.8894 	0.152465 	0 9.94476 	0.0761532 	0 10 	0 	0
10.0671 	0.375483 	0 10.0537 	0.300387 	0 10.0403 	0.225271 	0 10.0268 	0.150141 	0 10.0134 	0.0750008 	0 10 	0 	0
10.0364 	0.141572 	0 10.0291 	0.113304 	0 10.0218 	0.085089 	0 10.0145 	0.0569263 	0 10.0071 	0.0288164 	0 10 	0 	0
10.0137 	0.111519 	0 10.011 	0.0892151 	0 10.0082 	0.0669108 	0 10.0055 	0.0446062 	0 10.0027 	0.0223012 	0 10 	0 	0
10.0097 	0.0196534 	0 10.0078 	0.0157227 	0 10.0058 	0.011792 	0 10.0039 	0.00786135 	0 10.0019 	0.00393067 	0 10 	0 	0
10.0102 	-0.0372875 	0 10.0082 	-0.02983 	0 10.0061 	-0.0223725 	0 10.0041 	-0.0149149 	0 10.002 	-0.0074574 	0 10 	0 	0
10.0174 	-0.148997 	0 10.0139 	-0.119197 	0 10.0105 	-0.0893967 	0 10.007 	-0.0595953 	0 10.0035 	-0.0297932 	0 10 	0 	0
10.0362 	-0.265901 	0 10.029 	-0.212721 	0 10.0217 	-0.159534 	0 10.0145 	-0.106342 	0 10.0072 	-0.053146 	0 10 	0 	0
10.0563 	-0.387167 	0 10.045 	-0.309734 	0 10.0338 	-0.23228 	0 10.0225 	-0.15481 	0 10.0112 	-0.0773282 	0 10 	0 	0
8.30133 	-0.114495 	0 8.4287 	-0.091596 	0 8.55659 	-0.0686962 	0 8.68498 	-0.0457957 	0 8.81385 	-0.0228949 	0 8.94315 	0 	0
9.72339 	0.381311 	0 9.5415 	0.555241 	0 9.39671 	0.663651 	0 9.26203 	0.754271 	0 9.2183 	0.780385 	0 8.95344 	1.27614 	0 8.70578 	1.91036 	0 8.48173 	2.72184 	0 8.46724 	2.67123 	0 8.47252 	2.45986 	0 8.50117 	2.35314 	0 8.52498 	2.2443 	0 8.51221 	2.16311 	0 8.42487 	2.14738 	0 8.30214 	2.12559 	0 8.30117 	1.9821 	0 8.28715 	1.83798 	0 8.21181 	1.72569 	0 8.035 	1.67507 	0 7.86306 	1.62575 	0 7.68323 	1.56759 	0 7.50177 	1.50875 	0 7.42793 	1.45839 	0 7.36148 	1.40771 	0 7.27865 	1.34671 	0 7.22249 	1.32376 	0 7.16614 	1.3007 	0 7.10958 	1.27753 	0 7.07928 	1.2544 	0 7.05291 	1.23121 	0 6.97394 	1.13838 	0 6.88841 	1.05226 	0 6.79883 	0.980329 	0 6.71191 	0.932083 	0 6.6228 	0.883658 	0 6.55089 	0.833774 	0 6.49228 	0.787587 	0 6.44246 	0.743855 	0 6.3887 	0.69909 	0 6.31694 	0.642265 	0 6.31477 	0.640171 	0 6.3132 	0.638346 	0 6.31172 	0.636559 	0 6.31023 	0.634771 	0 6.30868 	0.632932 	0 6.27132 	0.597061 	0 6.23151 	0.560863 	0 6.18922 	0.524332 	0 6.1444 	0.487463 	0 6.10943 	0.456252 	0 6.07602 	0.42097 	0 6.0457 	0.390995 	0 6.017 	0.364551 	0 5.99443 	0.339601 	0 5.97316 	0.315196 	0 5.95246 	0.289062 	0 5.92972 	0.262719 	0 5.91348 	0.241658 	0 5.90339 	0.222654 	0 5.89182 	0.203587 	0 5.87917 	0.18352 	0 5.86498 	0.163353 	0 5.85627 	0.143789 	0 5.85336 	0.127401 	0 5.84919 	0.110985 	0 5.84296 	0.0943503 	0 5.83549 	0.077674 	0 5.83341 	0.0589717 	0 5.8363 	0.0430978 	0 5.838 	0.0272244 	0 5.83717 	0.0119267 	0 5.83534 	-0.00344007 	0 5.8392 	-0.0225414 	0 5.84731 	-0.0400329 	0 5.85424 	-0.0574703 	0 5.8586 	-0.0735373 	0 5.86184 	-0.0895783 	0 5.87121 	-0.110966 	0 5.88467 	-0.132504 	0 5.89664 	-0.153971 	0 5.90649 	-0.173337 	0 5.91506 	-0.192634 	0 5.92939 	-0.218093 	0 5.94827 	-0.247049 	0 5.96526 	-0.275865 	0 5.9812 	-0.302097 	0 5.9955 	-0.32818 	0 6.01454 	-0.359795 	0 6.03864 	-0.400959 	0 6.06024 	-0.441879 	0 6.08258 	-0.480343 	0 6.10478 	-0.520965 	0 6.13008 	-0.567621 	0 6.15456 	-0.619694 	0 6.17869 	-0.679504 	0 6.20607 	-0.738498 	0 6.23742 	-0.811889 	0 6.26489 	-0.884744 	0 6.28854 	-0.957062 	0 6.30865 	-1.02977 	0 6.30867 	-1.02983 	0 6.30868 	-1.0299 	0 6.3087 	-1.02997 	0 6.30872 	-1.03004 	0 6.30874 	-1.03011 	0 6.33252 	-1.12728 	0 6.35106 	-1.22235 	0 6.36447 	-1.31536 	0 6.37523 	-1.41404 	0 6.3885 	-1.53822 	0 6.40631 	-1.66397 	0 6.41786 	-1.78762 	0 6.40574 	-1.93013 	2.62049e-20 6.36936 	-2.07909 	5.37197e-20 6.31921 	-2.23386 	8.12219e-20 6.311 	-2.28433 	2.33628e-20 6.29882 	-2.33166 	5.81157e-21 6.28245 	-2.37569 	3.1245e-20 6.26553 	-2.41946 	5.7299e-20 6.25119 	-2.45515 	7.91801e-20 6.2248 	-2.551 	1.78941e-19 6.19646 	-2.64629 	2.82862e-19 6.16618 	-2.74099 	3.90917e-19 6.12003 	-2.82213 	2.74297e-19 6.06349 	-2.90246 	6.24805e-20 5.98353 	-3.02212 	4.92635e-20 5.89837 	-3.13881 	3.61803e-20 5.8015 	-3.23666 	8.56392e-21 5.70023 	-3.33256 	-1.80528e-20 5.6253 	-3.39914 	-3.61974e-20 5.61616 	-3.40843 	-3.59897e-20 5.60699 	-3.41772 	-3.5767e-20 5.59775 	-3.42636 	-3.69165e-20 5.58837 	-3.4333 	-4.17179e-20 5.57885 	-3.44032 	-4.65651e-20 5.45896 	-3.53653 	-2.82966e-20 5.33375 	-3.63078 	-9.45537e-21 5.20771 	-3.70773 	1.22735e-22 5.08148 	-3.76661 	-1.93036e-22 4.93245 	-3.83194 	7.15915e-23 4.93221 	-3.83208 	4.09683e-23 4.93196 	-3.83222 	1.03446e-23 4.93174 	-3.83231 	1.81602e-23 4.93153 	-3.83238 	4.55843e-23 4.93131 	-3.83245 	7.30169e-23 4.80559 	-3.8818 	1.12632e-21 4.67578 	-3.92954 	2.4841e-21 4.54885 	-3.96604 	4.21209e-21 4.43122 	-3.98314 	6.33735e-21 4.33589 	-3.99551 	8.20818e-21 4.30556 	-4.00317 	1.3353e-20 4.27502 	-4.01075 	1.85357e-20 4.24973 	-4.01246 	9.21879e-21 4.22456 	-4.01382 	-8.2739e-22 4.19827 	-4.01518 	-1.12433e-20 4.12445 	-4.02249 	-6.36243e-20 4.04946 	-4.02927 	-1.15637e-19 3.97342 	-4.03538 	-1.65833e-19 3.90925 	-4.02985 	-1.0158e-19 3.85043 	-4.02447 	-4.30505e-20 3.77286 	-4.02661 	4.16763e-21 3.6954 	-4.02587 	4.1982e-20 3.62352 	-4.01376 	3.41846e-20 3.55056 	-4.00117 	2.6658e-20 3.46853 	-3.98668 	1.86315e-20 3.46518 	-3.98626 	1.92588e-20 3.46184 	-3.98584 	1.98864e-20 3.45848 	-3.98542 	2.0514e-20 3.45532 	-3.9847 	2.10408e-20 3.45225 	-3.98386 	2.1526e-20 3.38412 	-3.97184 	1.41245e-20 3.31393 	-3.95768 	7.41615e-21 3.24253 	-3.94283 	7.02468e-22 3.17074 	-3.91577 	6.17013e-21 3.10311 	-3.889 	1.23536e-20 3.06103 	-3.87899 	3.47235e-20 3.01864 	-3.8676 	5.06218e-20 2.97704 	-3.84864 	2.33619e-20 2.93504 	-3.82945 	-3.84102e-21 2.88985 	-3.80876 	-3.27653e-20 2.87171 	-3.8022 	-3.88726e-20 2.8535 	-3.79559 	-4.49822e-20 2.8352 	-3.78893 	-5.10939e-20 2.81699 	-3.77986 	-5.72911e-20 2.79906 	-3.77034 	-6.34069e-20 2.74566 	-3.74928 	-1.07133e-19 2.69143 	-3.72773 	-1.5098e-19 2.63664 	-3.69709 	-1.46193e-19 2.58222 	-3.65971 	-8.81857e-20 2.52969 	-3.6236 	-3.27062e-20 2.51277 	-3.61468 	2.0537e-21 2.49581 	-3.60556 	3.52115e-20 2.47994 	-3.59317 	2.99589e-20 2.46401 	-3.58073 	2.47414e-20 2.44759 	-3.56792 	1.94239e-20 2.41704 	-3.54884 	5.65459e-20 2.38624 	-3.52956 	9.35884e-20 2.35519 	-3.51008 	1.30549e-19 2.32519 	-3.48557 	1.03453e-19 2.29578 	-3.46112 	7.22972e-20 2.25885 	-3.43543 	4.24499e-20 2.22147 	-3.40942 	1.25704e-20 2.18691 	-3.37657 	-2.89459e-21 2.1521 	-3.34337 	-1.80984e-20 2.11498 	-3.30805 	-3.42014e-20 2.11127 	-3.30519 	-3.17751e-20 2.10755 	-3.30232 	-2.93517e-20 2.10383 	-3.29945 	-2.69311e-20 2.10032 	-3.29602 	-3.399e-20 2.09683 	-3.29258 	-4.13462e-20 2.06012 	-3.26029 	-1.64634e-19 2.02439 	-3.22596 	-2.56624e-19 1.98933 	-3.18986 	-2.99658e-19 1.9571 	-3.14897 	-1.9332e-19 1.92534 	-3.10874 	-8.89856e-20 1.91674 	-3.09906 	-7.78969e-20 1.90812 	-3.08937 	-6.68039e-20 1.90078 	-3.07853 	-5.65347e-20 1.89375 	-3.06742 	-4.64561e-20 1.88665 	-3.05623 	-3.63019e-20 1.86472 	-3.03085 	-1.17602e-20 1.84268 	-3.00537 	1.28029e-20 1.82109 	-2.97921 	2.99815e-20 1.80205 	-2.95023 	1.2145e-20 1.78316 	-2.92149 	-5.5279e-21 1.76977 	-2.90253 	-2.11447e-20 1.75635 	-2.88354 	-3.67497e-20 1.74511 	-2.86325 	-1.81174e-20 1.73481 	-2.84245 	1.47117e-20 1.72451 	-2.82161 	4.76475e-20 1.71218 	-2.80442 	1.21419e-20 1.69983 	-2.78721 	-2.33135e-20 1.68811 	-2.76951 	-3.49341e-20 1.67803 	-2.75066 	1.29507e-20 1.66799 	-2.73187 	6.07041e-20 1.65466 	-2.70767 	1.97468e-19 1.64136 	-2.68349 	3.3417e-19 1.63044 	-2.65855 	2.96354e-19 1.62128 	-2.63311 	1.33609e-19 1.61237 	-2.60808 	-2.78287e-20 1.60456 	-2.59472 	-5.73813e-20 1.59676 	-2.58136 	-8.69418e-20 1.58977 	-2.56766 	-8.97893e-20 1.58389 	-2.5535 	-5.62891e-20 1.57803 	-2.53934 	-2.27623e-20 1.56804 	-2.51483 	-2.46237e-20 1.55816 	-2.49041 	-2.65248e-20 1.55022 	-2.46586 	-1.93292e-20 1.54478 	-2.44117 	-4.97845e-22 1.53971 	-2.41736 	1.77526e-20 1.53307 	-2.40287 	2.97255e-20 1.52645 	-2.38841 	4.16937e-20 1.52114 	-2.37372 	4.57258e-20 1.51679 	-2.3589 	4.41028e-20 1.51247 	-2.34403 	4.24499e-20 1.50723 	-2.32429 	2.55703e-20 1.50212 	-2.30467 	8.66519e-21 1.49809 	-2.28525 	-3.12974e-21 1.49674 	-2.2662 	-1.11771e-21 1.49563 	-2.24804 	8.15177e-22 1.48867 	-2.22753 	7.62427e-20 1.4818 	-2.20711 	1.51897e-19 1.47754 	-2.18686 	1.25772e-19 1.4742 	-2.16676 	6.77986e-20 1.47098 	-2.14648 	8.99889e-21 1.46978 	-2.13593 	-2.33749e-20 1.46864 	-2.12544 	-5.5705e-20 1.46775 	-2.11511 	-8.20357e-20 1.46928 	-2.10622 	-3.65012e-20 1.47084 	-2.09765 	7.88476e-21 1.46371 	-2.06744 	4.60783e-21 1.45689 	-2.0375 	1.31311e-21 1.45612 	-2.01094 	-2.3469e-20 1.45668 	-1.98523 	-5.17462e-20 1.45929 	-1.96226 	-7.48888e-20 1.45881 	-1.9603 	-6.85693e-20 1.45834 	-1.95835 	-6.23034e-20 1.4583 	-1.9566 	-6.70341e-20 1.45825 	-1.95485 	-7.17624e-20 1.4582 	-1.9531 	-7.65011e-20 1.45632 	-1.92817 	-2.09567e-19 1.45482 	-1.90354 	-3.41898e-19 1.45404 	-1.87949 	-4.46664e-19 1.4583 	-1.85926 	-1.91218e-19 1.46266 	-1.84089 	4.71029e-20 1.46051 	-1.826 	1.11157e-19 1.45848 	-1.8112 	1.75e-19 1.4594 	-1.79852 	1.4231e-19 1.46045 	-1.78595 	1.0972e-19 1.46165 	-1.77313 	7.63123e-20 1.46258 	-1.76355 	6.73801e-20 1.46359 	-1.75405 	5.84698e-20 1.46468 	-1.74461 	4.95818e-20 1.46729 	-1.73642 	5.16563e-20 1.46996 	-1.72865 	5.41736e-20 1.46944 	-1.70539 	2.94829e-20 1.46928 	-1.68241 	4.73038e-21 1.4722 	-1.66185 	2.0252e-20 1.4768 	-1.64238 	4.53386e-20 1.48274 	-1.62527 	6.85698e-20 1.48272 	-1.62121 	6.74538e-20 1.4828 	-1.61722 	6.76173e-20 1.48339 	-1.61361 	7.51591e-20 1.48399 	-1.61001 	8.26991e-20 1.48461 	-1.60637 	9.03268e-20 1.48732 	-1.59063 	1.39729e-19 1.4903 	-1.57508 	1.8901e-19 1.49354 	-1.55973 	2.38164e-19 1.49872 	-1.54622 	1.68537e-19 1.50413 	-1.53404 	8.22168e-20 1.50579 	-1.51455 	1.55544e-19 1.50829 	-1.4958 	2.03626e-19 1.51291 	-1.47899 	1.61792e-19 1.51787 	-1.46243 	1.20488e-19 1.52358 	-1.44495 	7.67219e-20 1.5236 	-1.44487 	7.64525e-20 1.52363 	-1.4448 	7.61832e-20 1.52366 	-1.44473 	7.59138e-20 1.52369 	-1.44466 	7.62719e-20 1.52372 	-1.4446 	7.69047e-20 1.52812 	-1.42757 	1.26677e-19 1.53293 	-1.41082 	1.74721e-19 1.53811 	-1.39433 	2.22373e-19 1.54488 	-1.37961 	1.84268e-19 1.55198 	-1.36669 	1.17139e-19 1.55531 	-1.34908 	2.03167e-19 1.55953 	-1.33237 	2.39459e-19 1.56517 	-1.31723 	1.74714e-19 1.57115 	-1.30232 	1.10185e-19 1.5775 	-1.28878 	3.78412e-20 1.57773 	-1.28779 	3.7591e-20 1.578 	-1.28685 	3.67658e-20 1.57832 	-1.28598 	3.52155e-20 1.57864 	-1.2851 	3.36648e-20 1.57896 	-1.28422 	3.21052e-20 1.58418 	-1.27026 	-1.34278e-20 1.5897 	-1.25651 	-5.88816e-20 1.59552 	-1.24295 	-1.04253e-19 1.60223 	-1.2306 	-8.93491e-20 1.60929 	-1.21986 	-3.00214e-20 1.61374 	-1.20434 	-7.54069e-20 1.6185 	-1.18903 	-1.21206e-19 1.62458 	-1.17565 	-1.03708e-19 1.63188 	-1.16299 	-6.09354e-20 1.6399 	-1.15161 	3.29817e-22 1.64219 	-1.14479 	2.87616e-20 1.6448 	-1.13847 	2.82505e-20 1.64766 	-1.13252 	7.11397e-21 1.65058 	-1.12661 	-1.39719e-20 1.65371 	-1.12044 	-3.60564e-20 1.65736 	-1.11361 	-6.80201e-20 1.66109 	-1.10682 	-9.98719e-20 1.66491 	-1.10009 	-1.31611e-19 1.66896 	-1.0938 	-1.31167e-19 1.67321 	-1.08831 	-7.98821e-20 1.67835 	-1.07457 	-1.11919e-19 1.68438 	-1.06131 	-1.36165e-19 1.69171 	-1.04891 	-1.45579e-19 1.6999 	-1.0383 	-1.35249e-19 1.70798 	-1.02833 	-1.25261e-19 1.71376 	-1.01482 	-2.75563e-19 1.72003 	-1.00213 	-3.50137e-19 1.72691 	-0.990688 	-2.96066e-19 1.73406 	-0.979408 	-2.42503e-19 1.74236 	-0.96933 	-1.16083e-19 1.74446 	-0.965001 	-8.26222e-20 1.7467 	-0.961122 	-8.48344e-20 1.74901 	-0.957377 	-9.66773e-20 1.75134 	-0.953649 	-1.08472e-19 1.75381 	-0.949778 	-1.20724e-19 1.75868 	-0.942412 	-1.24338e-19 1.76366 	-0.935113 	-1.27924e-19 1.76877 	-0.927882 	-1.31483e-19 1.77402 	-0.92094 	-1.2967e-19 1.77936 	-0.915167 	-1.05251e-19 1.78541 	-0.903235 	-1.32862e-19 1.79247 	-0.891877 	-1.44816e-19 1.8004 	-0.881024 	-1.43588e-19 1.80872 	-0.871958 	-1.0296e-19 1.81701 	-0.863427 	-6.0934e-20 1.82362 	-0.851735 	-1.64894e-19 1.8305 	-0.840211 	-2.6683e-19 1.83766 	-0.830518 	-2.25516e-19 1.84587 	-0.821411 	-1.27945e-19 1.85455 	-0.812966 	4.42214e-23 1.86116 	-0.80242 	1.424e-22 1.86793 	-0.793506 	1.07819e-22 1.8749 	-0.784733 	6.92246e-23 1.88205 	-0.776062 	3.02026e-23 1.89042 	-0.766303 	-1.471e-23 1.89081 	-0.765877 	7.25834e-22 1.89119 	-0.765452 	1.46588e-21 1.89158 	-0.765027 	2.20543e-21 1.89197 	-0.764602 	2.94449e-21 1.89235 	-0.764261 	4.32239e-22 1.89983 	-0.754806 	-2.53467e-20 1.90762 	-0.745522 	-4.72154e-20 1.91563 	-0.73635 	-6.89059e-20 1.92387 	-0.727302 	-8.98765e-20 1.93178 	-0.720314 	-3.11919e-20 1.93866 	-0.710358 	-2.11213e-20 1.94623 	-0.70084 	-1.39127e-20 1.95461 	-0.691857 	-1.03996e-20 1.96278 	-0.684586 	-1.59778e-20 1.97093 	-0.677718 	-2.24431e-20 1.97824 	-0.668012 	5.39488e-20 1.98577 	-0.658407 	1.30453e-19 1.9932 	-0.650319 	1.3236e-19 2.00151 	-0.643373 	6.57227e-20 2.00986 	-0.636631 	1.63111e-22 2.01757 	-0.627178 	9.69579e-23 2.0251 	-0.618803 	-1.11957e-20 2.03252 	-0.611262 	-3.10413e-20 2.04012 	-0.6038 	-5.08632e-20 2.04859 	-0.59716 	-6.39012e-20 2.05549 	-0.589464 	-1.06425e-19 2.06201 	-0.582961 	-1.09977e-19 2.06867 	-0.576515 	-1.13588e-19 2.07546 	-0.570127 	-1.17259e-19 2.08342 	-0.562855 	-1.21541e-19 2.08419 	-0.562182 	-1.22739e-19 2.08496 	-0.561509 	-1.23936e-19 2.08574 	-0.560838 	-1.25132e-19 2.08651 	-0.560167 	-1.26328e-19 2.08722 	-0.559622 	-1.22273e-19 2.09468 	-0.552321 	-9.43104e-20 2.10238 	-0.545163 	-6.50672e-20 2.11025 	-0.538074 	-3.58618e-20 2.11829 	-0.531055 	-6.6945e-21 2.12555 	-0.525566 	1.79214e-22 2.13271 	-0.5178 	6.74865e-20 2.14053 	-0.510818 	8.64366e-20 2.14854 	-0.503926 	1.03574e-19 2.1562 	-0.49785 	8.43231e-20 2.16321 	-0.492932 	1.48954e-20 2.1706 	-0.485409 	-5.50446e-20 2.17821 	-0.478035 	-1.18782e-19 2.18628 	-0.471395 	-1.35001e-19 2.1932 	-0.46653 	-6.72701e-20 2.20017 	-0.461749 	-7.24537e-23 2.20776 	-0.454469 	-3.95531e-23 2.21552 	-0.447248 	-6.82472e-24 2.22264 	-0.441384 	0 2.22948 	-0.436667 	0 2.23639 	-0.432024 	0 2.24414 	-0.424986 	0 2.25181 	-0.418268 	0 2.25831 	-0.413033 	0 2.26501 	-0.408257 	-1.01417e-20 2.27181 	-0.403752 	-2.51638e-20 2.2797 	-0.396953 	-6.22819e-21 2.28661 	-0.391317 	-6.35578e-21 2.29311 	-0.386267 	-1.58217e-20 2.29973 	-0.381281 	-2.67313e-20 2.3064 	-0.376913 	-6.64732e-20 2.31411 	-0.370601 	-2.84823e-20 2.32046 	-0.3657 	-3.02716e-20 2.32693 	-0.360832 	-3.20327e-20 2.33351 	-0.355997 	-3.37658e-20 2.34011 	-0.35148 	-4.64672e-20 2.34635 	-0.346621 	-3.69183e-20 2.35195 	-0.342409 	-3.83679e-20 2.35765 	-0.338221 	-3.9796e-20 2.36344 	-0.334057 	-4.12029e-20 2.37029 	-0.329241 	-4.2815e-20 2.37081 	-0.328882 	-4.26956e-20 2.37134 	-0.328523 	-4.25764e-20 2.37187 	-0.328165 	-4.24574e-20 2.37239 	-0.327806 	-4.23386e-20 2.37286 	-0.327503 	-4.25177e-20 2.37902 	-0.322913 	-4.92277e-20 2.38528 	-0.318377 	-5.37765e-20 2.39166 	-0.313869 	-5.82483e-20 2.39814 	-0.309389 	-6.26437e-20 2.40377 	-0.305662 	-3.89641e-20 2.4101 	-0.300946 	-7.51759e-20 2.41626 	-0.296586 	-8.73088e-20 2.42253 	-0.292251 	-9.93829e-20 2.42891 	-0.287942 	-1.11399e-19 2.43355 	-0.284955 	-7.13017e-20 2.44012 	-0.280171 	-1.18594e-19 2.44616 	-0.275984 	-1.2112e-19 2.45231 	-0.27182 	-1.236e-19 2.45819 	-0.267916 	-1.18999e-19 2.46217 	-0.265352 	-7.53442e-20 2.46878 	-0.260736 	-1.17873e-19 2.47495 	-0.25653 	-1.28023e-19 2.48095 	-0.252535 	-1.22418e-19 2.48588 	-0.249274 	-9.48009e-20 2.48962 	-0.246815 	-4.31994e-20 2.4962 	-0.242402 	4.31578e-20 2.50259 	-0.238182 	1.03873e-19 2.50843 	-0.234353 	1.09369e-19 2.51241 	-0.231664 	5.03705e-20 2.5159 	-0.229309 	-2.66952e-20 2.52244 	-0.225095 	-1.75918e-20 2.52909 	-0.2209 	-8.49835e-21 2.5346 	-0.217316 	8.66914e-21 2.53778 	-0.215049 	2.59575e-20 2.54101 	-0.212794 	4.32206e-20 2.54749 	-0.208776 	-4.33236e-20 2.55407 	-0.204774 	-1.2988e-19 2.55906 	-0.201553 	-1.41242e-19 2.56198 	-0.199386 	-7.1081e-20 2.56495 	-0.197231 	-1.01821e-21 2.57136 	-0.193403 	-1.04693e-22 2.57786 	-0.189591 	7.88026e-22 2.58237 	-0.186706 	-1.56683e-20 2.58502 	-0.184637 	-4.9415e-20 2.58773 	-0.182578 	-8.31366e-20 2.59404 	-0.178938 	-4.76811e-20 2.60045 	-0.175311 	-1.22412e-20 2.60452 	-0.172735 	-8.54664e-21 2.60691 	-0.170763 	-2.59302e-20 2.60935 	-0.168799 	-4.32981e-20 2.61557 	-0.165341 	-2.59875e-20 2.62187 	-0.161898 	-8.71161e-21 2.62548 	-0.15962 	-9.45598e-21 2.62767 	-0.157724 	-2.60536e-20 2.62984 	-0.155852 	-4.3379e-20 2.63595 	-0.152572 	-1.64886e-19 2.64159 	-0.149518 	-2.61784e-19 2.64504 	-0.147359 	-2.57093e-19 2.64731 	-0.14548 	-1.64747e-19 2.64921 	-0.143699 	-4.33595e-20 2.6552 	-0.140593 	-2.59815e-20 2.66021 	-0.137886 	-8.6211e-21 2.66349 	-0.135842 	8.70888e-21 2.66584 	-0.133996 	2.13083e-20 2.66747 	-0.132303 	3.02503e-20 2.67334 	-0.129365 	9.13187e-20 2.67774 	-0.126967 	1.1869e-19 2.68085 	-0.125036 	1.17016e-19 2.68329 	-0.123233 	9.21105e-20 2.68467 	-0.121627 	3.16742e-20 2.69041 	-0.118852 	2.32322e-20 2.69421 	-0.11673 	1.48065e-20 2.69716 	-0.114906 	6.38574e-21 2.69969 	-0.113157 	0 2.70081 	-0.111634 	0 2.70642 	-0.109018 	0 2.70966 	-0.10714 	1.47195e-20 2.71244 	-0.105421 	3.25499e-20 2.71507 	-0.103733 	5.03651e-20 2.71594 	-0.102292 	6.81071e-20 2.72141 	-0.0998296 	1.90104e-19 2.72412 	-0.0981672 	1.93621e-19 2.72674 	-0.096549 	1.91094e-19 2.7294 	-0.0949341 	1.88617e-19 2.73007 	-0.0935669 	7.02137e-20 2.73521 	-0.0913042 	5.31995e-20 2.73763 	-0.0897807 	3.62385e-20 2.74008 	-0.08826 	1.92693e-20 2.74258 	-0.086742 	2.29199e-21 2.74326 	-0.0854263 	1.46996e-20 2.74795 	-0.0833803 	-4.34183e-24 2.7502 	-0.0819511 	-2.98878e-23 2.7525 	-0.0805242 	-5.54236e-23 2.75484 	-0.0790998 	-8.09492e-23 2.75552 	-0.0778397 	6.38977e-21 2.75979 	-0.0759887 	-5.08117e-20 2.76189 	-0.0746501 	-4.95126e-20 2.76404 	-0.0733136 	-4.8241e-20 2.76622 	-0.0719792 	-4.69968e-20 2.7669 	-0.0707777 	-5.6444e-21 2.77077 	-0.0691023 	8.55951e-23 2.77273 	-0.0678507 	6.04888e-23 2.77472 	-0.066601 	3.53728e-23 2.77675 	-0.065353 	1.02471e-23 2.77743 	-0.0642123 	0 2.78094 	-0.0626948 	1.1189e-20 2.78275 	-0.0615267 	3.75124e-20 2.7846 	-0.0603601 	6.38271e-20 2.78648 	-0.0591951 	9.01331e-20 2.78715 	-0.0581163 	1.07495e-19 2.79032 	-0.056741 	1.73104e-19 2.79199 	-0.0556529 	1.72025e-19 2.7937 	-0.054566 	1.70975e-19 2.79544 	-0.0534804 	1.69952e-19 2.7961 	-0.052464 	1.02483e-19 2.79895 	-0.051217 	8.75803e-20 2.8005 	-0.0502052 	5.31467e-20 2.80207 	-0.0491945 	1.87076e-20 2.80367 	-0.0481849 	-1.57368e-20 2.80431 	-0.0472306 	-4.66907e-20 2.80688 	-0.0460993 	-9.02165e-20 2.8083 	-0.0451603 	-8.90086e-20 2.80974 	-0.0442224 	-8.78344e-20 2.81121 	-0.0432853 	-8.66941e-20 2.81182 	-0.0423925 	-3.70495e-20 2.81414 	-0.0413657 	-4.95388e-20 2.81543 	-0.0404962 	-3.1718e-20 2.81676 	-0.0396275 	-1.39151e-20 2.8181 	-0.0387595 	3.86991e-21 2.81868 	-0.037927 	4.31041e-20 2.82076 	-0.0369948 	4.98611e-20 2.82194 	-0.0361913 	6.73321e-20 2.82315 	-0.0353885 	8.47949e-20 2.82438 	-0.0345863 	1.02249e-19 2.82491 	-0.0338125 	1.22065e-19 2.82678 	-0.0329661 	1.46232e-19 2.82785 	-0.0322253 	1.3701e-19 2.82895 	-0.031485 	1.27808e-19 2.83007 	-0.0307453 	1.18628e-19 2.83056 	-0.0300284 	8.16882e-20 2.83224 	-0.0292599 	5.80647e-20 2.83321 	-0.0285784 	3.23164e-20 2.8342 	-0.0278974 	6.56634e-21 2.83521 	-0.0272169 	-1.91856e-20 2.83565 	-0.0265549 	-4.10463e-20 2.83717 	-0.0258572 	-5.61691e-20 2.83805 	-0.0252319 	-3.83949e-20 2.83894 	-0.024607 	-2.06469e-20 2.83985 	-0.0239824 	-2.92488e-21 2.84023 	-0.0233731 	4.84837e-20 2.84161 	-0.02274 	1.02327e-19 2.84239 	-0.0221677 	1.10007e-19 2.84319 	-0.0215957 	1.17731e-19 2.84401 	-0.021024 	1.25498e-19 2.84433 	-0.0204649 	8.86224e-20 2.84558 	-0.0198908 	7.17985e-20 2.84628 	-0.0193684 	6.32548e-20 2.847 	-0.0188463 	5.4707e-20 2.84773 	-0.0183244 	4.61551e-20 2.84798 	-0.0178132 	3.76058e-20 2.84913 	-0.017293 	1.44057e-20 2.84975 	-0.0168176 	1.47535e-20 2.85038 	-0.0163424 	1.50787e-20 2.85103 	-0.0158673 	1.53813e-20 2.85122 	-0.0154013 	4.14744e-20 2.85227 	-0.0149307 	3.98576e-20 2.85