# vtk DataFile Version 2.0
track0
ASCII
DATASET POLYDATA
POINTS 12278 float
-0.0205 0.001 1e-05
-0.02052 0.000999216 1e-05
-0.02054 0.000998592 1e-05
-0.02056 0.000998126 1e-05
-0.02058 0.000997818 1e-05
-0.0206 0.000997665 1e-05
-0.0205 0.00367778 1e-05
-0.02052 0.00367703 1e-05
-0.02054 0.00367643 1e-05
-0.02056 0.00367599 1e-05
-0.02058 0.00367569 1e-05
-0.0206 0.00367554 1e-05
-0.0205 0.00635556 1e-05
-0.02052 0.00635527 1e-05
-0.02054 0.00635505 1e-05
-0.02056 0.00635488 1e-05
-0.02058 0.00635476 1e-05
-0.0206 0.00635471 1e-05
-0.0205 0.00903333 1e-05
-0.02052 0.00903311 1e-05
-0.02054 0.00903293 1e-05
-0.02056 0.0090328 1e-05
-0.02058 0.00903271 1e-05
-0.0206 0.00903266 1e-05
-0.0205 0.0117111 1e-05
-0.02052 0.0117111 1e-05
-0.02054 0.011711 1e-05
-0.02056 0.011711 1e-05
-0.02058 0.011711 1e-05
-0.0206 0.011711 1e-05
-0.0205 0.0143889 1e-05
-0.02052 0.014389 1e-05
-0.02054 0.014389 1e-05
-0.02056 0.0143891 1e-05
-0.02058 0.0143891 1e-05
-0.0206 0.0143891 1e-05
-0.0205 0.0170667 1e-05
-0.02052 0.017067 1e-05
-0.02054 0.0170672 1e-05
-0.02056 0.0170674 1e-05
-0.02058 0.0170675 1e-05
-0.0206 0.0170676 1e-05
-0.0205 0.0197444 1e-05
-0.02052 0.019745 1e-05
-0.02054 0.0197454 1e-05
-0.02056 0.0197457 1e-05
-0.02058 0.0197459 1e-05
-0.0206 0.019746 1e-05
-0.0205 0.0224222 1e-05
-0.02052 0.022423 1e-05
-0.02054 0.0224236 1e-05
-0.02056 0.0224241 1e-05
-0.02058 0.0224244 1e-05
-0.0206 0.0224245 1e-05
-0.0205 0.0251 1e-05
-0.02052 0.0251003 1e-05
-0.02054 0.0251005 1e-05
-0.02056 0.0251007 1e-05
-0.02058 0.0251008 1e-05
-0.0206 0.0251008 1e-05
-0.0205 0.001 1e-05
-0.0203632 0.00100536 1e-05
-0.0202266 0.00101331 1e-05
-0.0200901 0.00102296 1e-05
-0.0200427 0.00102682 1e-05
-0.0198376 0.00104418 1e-05
-0.0196338 0.00107322 1e-05
-0.0194327 0.00111734 1e-05
-0.0192367 0.00118024 1e-05
-0.0190172 0.00124951 1e-05
-0.0189002 0.00128348 1e-05
-0.0187827 0.00131598 1e-05
-0.0186649 0.001347 1e-05
-0.0185468 0.001377 1e-05
-0.0183807 0.00141936 1e-05
-0.0182041 0.00146458 1e-05
-0.0180267 0.00150692 1e-05
-0.0178487 0.00154639 1e-05
-0.0176703 0.00158389 1e-05
-0.0174976 0.0016199 1e-05
-0.0172846 0.00166393 1e-05
-0.0170715 0.00170741 1e-05
-0.0168583 0.00175029 1e-05
-0.0166449 0.00179219 1e-05
-0.0163945 0.00184007 1e-05
-0.0163233 0.00185323 1e-05
-0.0162521 0.00186628 1e-05
-0.0161809 0.0018792 1e-05
-0.0161097 0.001892 1e-05
-0.0160387 0.00190459 1e-05
-0.0157586 0.00195349 1e-05
-0.0154779 0.00199929 1e-05
-0.0151968 0.00204223 1e-05
-0.0149154 0.00208281 1e-05
-0.0146381 0.00212132 1e-05
-0.0143838 0.00215525 1e-05
-0.0141292 0.00218764 1e-05
-0.0138745 0.00221854 1e-05
-0.0136197 0.00224797 1e-05
-0.0132934 0.00228366 1e-05
-0.0132791 0.00228512 1e-05
-0.0132647 0.00228658 1e-05
-0.0132503 0.00228804 1e-05
-0.0132359 0.00228949 1e-05
-0.0132211 0.00229098 1e-05
-0.0129774 0.00231543 1e-05
-0.0127335 0.00233864 1e-05
-0.0124896 0.0023606 1e-05
-0.0122455 0.00238127 1e-05
-0.0120025 0.00240055 1e-05
-0.0117547 0.00241907 1e-05
-0.0115067 0.00243625 1e-05
-0.0112587 0.00245229 1e-05
-0.0110106 0.00246733 1e-05
-0.0107632 0.00248135 1e-05
-0.0105252 0.00249391 1e-05
-0.0102872 0.00250548 1e-05
-0.0100491 0.00251603 1e-05
-0.00981105 0.00252577 1e-05
-0.00957337 0.00253474 1e-05
-0.00934491 0.00254264 1e-05
-0.00911643 0.00254979 1e-05
-0.00888792 0.00255616 1e-05
-0.0086594 0.00256178 1e-05
-0.00843108 0.00256677 1e-05
-0.00821175 0.00257094 1e-05
-0.00799241 0.0025745 1e-05
-0.00777306 0.00257743 1e-05
-0.0075537 0.00257967 1e-05
-0.00733443 0.00258131 1e-05
-0.00712387 0.00258231 1e-05
-0.0069133 0.00258276 1e-05
-0.00670273 0.00258266 1e-05
-0.00649216 0.00258187 1e-05
-0.0062816 0.00258045 1e-05
-0.00607944 0.00257849 1e-05
-0.0058773 0.00257598 1e-05
-0.00567516 0.00257292 1e-05
-0.00547303 0.00256913 1e-05
-0.00527083 0.0025646 1e-05
-0.00507675 0.00255957 1e-05
-0.00488269 0.00255391 1e-05
-0.00468865 0.00254762 1e-05
-0.00449464 0.00254052 1e-05
-0.00430044 0.00253249 1e-05
-0.00411412 0.00252392 1e-05
-0.00392784 0.00251455 1e-05
-0.00374159 0.00250439 1e-05
-0.0035554 0.0024933 1e-05
-0.00336883 0.00248095 1e-05
-0.00318995 0.00246796 1e-05
-0.00301115 0.00245388 1e-05
-0.00283245 0.00243868 1e-05
-0.00265385 0.0024222 1e-05
-0.00247443 0.00240419 1e-05
-0.0023027 0.00238535 1e-05
-0.00213114 0.002365 1e-05
-0.00195982 0.00234276 1e-05
-0.00178875 0.00231866 1e-05
-0.00161577 0.0022924 1e-05
-0.00161402 0.00229212 1e-05
-0.00161227 0.00229183 1e-05
-0.00161052 0.00229155 1e-05
-0.00160878 0.00229126 1e-05
-0.00160704 0.00229098 1e-05
-0.00144392 0.00226427 1e-05
-0.00128119 0.00223526 1e-05
-0.00111887 0.002204 1e-05
-0.000956995 0.00217055 1e-05
-0.000791418 0.00213386 1e-05
-0.000633135 0.00209582 1e-05
-0.000475555 0.00205496 1e-05
-0.000318715 0.00201134 1e-05
-0.000162822 0.00196446 1e-05
0 0.00191139 1e-05
3.84055e-05 0.00189784 1e-05
7.67053e-05 0.00188399 1e-05
0.000114901 0.00186985 1e-05
0.000152994 0.00185544 1e-05
0.000183973 0.00184347 1e-05
0.000252856 0.00181638 1e-05
0.000321339 0.00178829 1e-05
0.000389408 0.00175922 1e-05
0.00045705 0.00172917 1e-05
0.000528387 0.0016963 1e-05
0.000634886 0.0016454 1e-05
0.00074028 0.00159225 1e-05
0.000844514 0.00153685 1e-05
0.000947628 0.0014794 1e-05
0.00102411 0.00143475 1e-05
0.00103146 0.0014303 1e-05
0.00103881 0.00142584 1e-05
0.00104615 0.00142137 1e-05
0.00105348 0.00141688 1e-05
0.00106088 0.00141234 1e-05
0.00116821 0.00134625 1e-05
0.00127404 0.00127779 1e-05
0.00137828 0.00120693 1e-05
0.001481 0.00113389 1e-05
0.00159752 0.00104763 1e-05
0.00159816 0.00104714 1e-05
0.00159879 0.00104664 1e-05
0.00159943 0.00104614 1e-05
0.00160007 0.00104565 1e-05
0.00160071 0.00104515 1e-05
0.00169554 0.000971454 1e-05
0.00178897 0.000895974 1e-05
0.0018809 0.000818686 1e-05
0.00197141 0.000739742 1e-05
0.00204185 0.000676397 1e-05
0.00206115 0.000658607 1e-05
0.00208036 0.000640734 1e-05
0.00209951 0.000622778 1e-05
0.00211859 0.000604763 1e-05
0.00213833 0.000586023 1e-05
0.00219226 0.00053448 1e-05
0.00224568 0.000482404 1e-05
0.00229857 0.000429787 1e-05
0.0023509 0.000376621 1e-05
0.00239778 0.000328269 1e-05
0.00245489 0.00026853 1e-05
0.00251138 0.000208203 1e-05
0.00256726 0.000147306 1e-05
0.00262263 8.59512e-05 1e-05
0.00268334 1.75281e-05 1e-05
0.00268639 1.40225e-05 1e-05
0.00268944 1.05152e-05 1e-05
0.00269248 7.0062e-06 1e-05
0.00269553 3.49555e-06 1e-05
0.00269855 0 1e-05
0.00276238 -7.37385e-05 1e-05
0.00282558 -0.000148012 1e-05
0.00288814 -0.000222828 1e-05
0.00295003 -0.000298199 1e-05
0.00300699 -0.000368662 1e-05
0.00305211 -0.000425307 1e-05
0.00309692 -0.000482193 1e-05
0.00314144 -0.000539316 1e-05
0.0031857 -0.000596633 1e-05
0.00323259 -0.000657913 1e-05
0.0032511 -0.000682352 1e-05
0.00326956 -0.000706833 1e-05
0.00328796 -0.000731356 1e-05
0.0033063 -0.000755922 1e-05
0.00332428 -0.000780102 1e-05
0.00339225 -0.000871889 1e-05
0.00345962 -0.000964123 1e-05
0.00352635 -0.00105681 1e-05
0.00359254 -0.0011499 1e-05
0.00365518 -0.00123897 1e-05
0.00368136 -0.00127661 1e-05
0.00370747 -0.0013143 1e-05
0.00373351 -0.00135204 1e-05
0.00375949 -0.00138982 1e-05
0.00378611 -0.00142864 1e-05
0.0038301 -0.001493 1e-05
0.00387387 -0.00155752 1e-05
0.00391742 -0.00162219 1e-05
0.00396073 -0.00168701 1e-05
0.00400285 -0.00175044 1e-05
0.00407107 -0.00185375 1e-05
0.00413886 -0.00195734 1e-05
0.0042062 -0.00206122 1e-05
0.00427324 -0.00216529 1e-05
0.00434393 -0.00227573 1e-05
0.00434959 -0.00228464 1e-05
0.00435525 -0.00229355 1e-05
0.00436091 -0.00230247 1e-05
0.00436656 -0.00231138 1e-05
0.00437219 -0.00232028 1e-05
0.00445256 -0.00244722 1e-05
0.00453247 -0.00257445 1e-05
0.00461197 -0.00270194 1e-05
0.00469108 -0.00282967 1e-05
0.00476838 -0.00295492 1e-05
0.00479592 -0.00299971 1e-05
0.00482343 -0.00304453 1e-05
0.00485092 -0.00308937 1e-05
0.00487839 -0.00313421 1e-05
0.00490609 -0.00317944 1e-05
0.00496514 -0.00327585 1e-05
0.00502403 -0.00337236 1e-05
0.00508277 -0.00346896 1e-05
0.00514137 -0.00356565 1e-05
0.0051994 -0.00366149 1e-05
0.00525404 -0.00375183 1e-05
0.00530864 -0.00384219 1e-05
0.00536318 -0.00393259 1e-05
0.00541774 -0.00402298 1e-05
0.00547262 -0.00411379 1e-05
0.00551306 -0.00418062 1e-05
0.00555346 -0.00424747 1e-05
0.00559383 -0.00431433 1e-05
0.00563418 -0.00438121 1e-05
0.00567445 -0.00444792 1e-05
0.00574827 -0.00457012 1e-05
0.00582213 -0.00469231 1e-05
0.00589602 -0.00481447 1e-05
0.00597005 -0.00493655 1e-05
0.00604356 -0.00505729 1e-05
0.00607604 -0.00511042 1e-05
0.00610852 -0.00516355 1e-05
0.006141 -0.00521668 1e-05
0.0061735 -0.0052698 1e-05
0.00620608 -0.00532296 1e-05
0.00628865 -0.00545748 1e-05
0.00637142 -0.00559189 1e-05
0.00645439 -0.00572617 1e-05
0.00653766 -0.00586026 1e-05
0.00661893 -0.00599027 1e-05
0.00665745 -0.00605147 1e-05
0.00669601 -0.00611265 1e-05
0.00673461 -0.0061738 1e-05
0.00677327 -0.00623491 1e-05
0.0068122 -0.00629629 1e-05
0.00688952 -0.00641779 1e-05
0.00696712 -0.0065391 1e-05
0.00704502 -0.00666022 1e-05
0.00712327 -0.00678112 1e-05
0.00719878 -0.00689687 1e-05
0.00726211 -0.0069932 1e-05
0.00732563 -0.0070894 1e-05
0.00738932 -0.00718549 1e-05
0.00745326 -0.00728141 1e-05
0.00751841 -0.00737853 1e-05
0.00757135 -0.00745695 1e-05
0.00762447 -0.00753525 1e-05
0.00767777 -0.00761344 1e-05
0.00773125 -0.0076915 1e-05
0.00778313 -0.00776676 1e-05
0.00789608 -0.00792962 1e-05
0.00800975 -0.00809198 1e-05
0.00812414 -0.00825382 1e-05
0.00823949 -0.00841498 1e-05
0.00835999 -0.0085812 1e-05
0.0083624 -0.00858448 1e-05
0.00836481 -0.00858775 1e-05
0.00836722 -0.00859103 1e-05
0.00836963 -0.00859431 1e-05
0.00837203 -0.00859758 1e-05
0.00849073 -0.00875887 1e-05
0.00861037 -0.00891946 1e-05
0.008731 -0.0090793 1e-05
0.00885266 -0.00923837 1e-05
0.00896551 -0.00938371 1e-05
0.00901745 -0.00944967 1e-05
0.00906957 -0.0095155 1e-05
0.00912186 -0.00958118 1e-05
0.00917435 -0.0096467 1e-05
0.00922825 -0.00971356 1e-05
0.00929532 -0.0097962 1e-05
0.0093627 -0.00987859 1e-05
0.00943039 -0.00996073 1e-05
0.0094984 -0.0100426 1e-05
0.0095636 -0.0101205 1e-05
0.00968415 -0.0102633 1e-05
[...]
POINT_DATA 12278
 FIELD attributes 2
p 1 12278 float
177139 177221 177293 177357 177411 177455
109073 109091 109107 109121 109133 109144
87879.6 87889.2 87898.5 87907.7 87916.7 87925.1
80062.5 80068.8 80075 80081.2 80087.2 80093.2
77272.3 77281.5 77290.7 77299.9 77309.1 77318.3
77690.2 77703.8 77717.4 77730.9 77744.5 77758
81224 81236.4 81248.7 81260.8 81272.7 81284.4
91051 91070.7 91089.7 91108 91125.6 91142.5
117483 117516 117546 117575 117601 117624
215602 215412 215220 215026 214830 214632
177139 173534 169207 164628 162962 159030 155648 152997 144832 134791 129348 123919 119981 119370 118518 112473 106573 102452 101556 100690 99707.3 98725 97298.3 95829.9 94114.1 93747.7 93380.7 93013.2 92532.3 92034.6 90115 88311.2 86797 86009.6 85232.8 84546.8 83881.8 83231.8 82579.9 81746.3 81711.2 81682.2 81654 81625.9 81597 81064.2 80531.9 80000.2 79468.9 79043.8 78617.4 78208.2 77810.4 77434.6 77068.5 76718.5 76368 76044.2 75742.6 75441.3 75151.7 74861.9 74583.2 74320.3 74057.5 73803.7 73549.8 73299.6 73063.2 72827 72597.9 72368.8 72138.2 71918.5 71699.1 71485.3 71271.6 71052.8 70841.8 70630.9 70423.6 70216.5 70003.3 69790.8 69578.5 69366.4 69154.8 68939.4 68711.2 68483.5 68250.5 68014.9 67770.8 67517.8 67251.9 66972 66658.4 66346.3 66035.8 65722.5 65718.6 65714.1 65709.5 65704.8 65700.3 65313.4 64932.1 64556.3 64162.3 63687.4 63172.4 62663.1 61966.3 61194.1 60382.4 60127.6 59883.3 59650.2 59417.7 59228.6 58680.3 58129.9 57577.5 57111.6 56650.8 56047.3 55444.5 54905.7 54365.5 53959.3 53907.3 53855.1 53805.6 53762.9 53719.7 53167.8 52608.6 52090.1 51618.8 51070.6 51067.8 51065 51062.4 51060.1 51057.9 50631 50196.1 49795 49459.2 49190.1 49094.7 48999 48930.9 48864 48794.3 48603.3 48409.9 48214.7 48068.2 47934.3 47763.7 47597.1 47459.1 47319 47161.8 47153.5 47145.3 47137.1 47129.6 47122.5 47018.2 46905.7 46790.7 46677.2 46570 46534.6 46498 46458.5 46418.4 46374.8 46354 46333 46311.9 46290.1 46268.3 46242.4 46215.1 46177.6 46134.7 46092.6 46094.7 46096.5 46095.6 46094.4 46093.2 46081.4 46069.2 46056.6 46041 46025.3 46034.3 46042.7 46046.3 46049.5 46052.3 46051.4 46050.5 46049.7 46048.6 46047.5 46060.1 46072.7 46084.4 46094.1 46103.3 46113.6 46123.9 46133.7 46143.4 46153.1 46163.7 46174.1 46184.3 46194.4 46204.3 46222.7 46241.1 46259.4 46277.9 46296.4 46304 46311.6 46319.4 46327.5 46335.6 46358.3 46381.1 46404.5 46428.5 46452.4 46458.7 46465 46471.6 46478.6 46485.7 46509.3 46533 46557.5 46583.2 46608.4 46615.9 46623.4 46631.6 46640.2 46648.9 46669.4 46690.1 46711.4 46734.4 46756.6 46768.6 46780.6 46794.2 46808.4 46822.8 46835.9 46849 46862.4 46876.9 46890.9 46911.3 46931.9 46955.9 46980.4 47006.1 47006.7 47007.2 47007.8 47008.3 47008.9 47030.6 47052.9 47075.8 47100.8 47124.2 47131.6 47139.1 47147.7 47156.4 47165.3 47177 47188.8 47200.7 47213.5 47225.8 47242.5 47259.5 47278.4 47297.5 47315.7 47316.4 47317 47317.8 47318.5 47319.2 47335.5 47352 47368.5 47386.4 47403.3 47414.7 47426.4 47439.2 47452.1 47465.9 47468.5 47471.1 47473.7 47476.5 47479.3 47492.8 47507.3 47521.8 47537.8 47552.8 47562.8 47573.3 47584.7 47596.1 47608.5 47610.2 47611.9 47613.6 47615.3 47617.2 47629 47641.3 47653.7 47667.1 47680.1 47690.1 47700.5 47711.9 47723.4 47735.1 47737.2 47739.5 47742 47744.5 47747.1 47755 47762.9 47770.8 47779.2 47787.7 47796.3 47804.8 47814.5 47825.1 47835.3 47842.6 47850.8 47859.5 47868.2 47876.6 47877.2 47877.9 47878.7 47879.4 47880.1 47887.1 47894.1 47901.2 47908.4 47916.3 47922.2 47928.1 47935 47942.8 47950.4 47955.1 47960.2 47966.1 47972.2 47978.6 47981 47984.2 47987.4 47990.6 47994.1 47995.6 47997.2 47998.7 48000.2 48002 48005.5 48009.4 48013.2 48017.2 48021.9 48023.9 48025.9 48028.6 48032.3 48035.8 48036.6 48037.3 48039.1 48041.3 48043.7 48043.3 48043.6 48044.1 48044.6 48045.5 48044.7 48044.3 48043.9 48043.5 48043 48042.8 48042.5 48042.3 48042.1 48042.1 48040.2 48038.5 48036.7 48034.9 48033.9 48030.4 48027.3 48024.3 48021.8 48019.6 48014.8 48010.1 48006 48002.6 47999.1 47993.2 47987.3 47981.9 47977.3 47972.6 47965.6 47958.7 47952.2 47946 47940.1 47932 47924.3 47916.6 47909 47901.9 47892.8 47884.1 47875.3 47866.5 47857.9 47852.1 47846.3 47840.6 47834.8 47828.5 47824.5 47820.6 47816.6 47812.6 47808.7 47797.8 47787 47776.2 47765.3 47754.6 47742.4 47730.6 47718.7 47706.8 47695.2 47681.8 47668.9 47656 47643.2 47630.5 47616.2 47602.2 47588.3 47574.6 47560.9 47545.7 47530.6 47515.9 47501.2 47486.6 47470.5 47454.5 47438.8 47423.3 47407.7 47390.8 47373.9 47357.3 47340.9 47324.5 47306.8 47289.2 47271.6 47254.4 47237.1 47218.7 47200.3 47181.9 47163.9 47145.8 47126.7 47107.6 47088.4 47069.6 47050.8 47031 47011.2 46991.4 46971.7 46952.2 46931.8 46911.4 46890.9 46870.5 46850.3 46829.3 46808.3 46787.1 46766.1 46745.3 46723.7 46702.1 46680.4 46658.7 46637.3 46615.2 46592.9 46570.7 46548.5 46526.5 46503.9 46481.1 46458.3 46435.6 46413 46389.9 46366.7 46343.4 46320.2 46297.1 46273.6 46249.9 46226.2 46202.5 46178.9 46154.9 46130.8 46106.6 46082.5 46058.5 46034.1 46009.6 45985 45960.5 45936.1 45911.3 45886.4 45861.5 45836.5 45811.7 45786.5 45761.3 45736 45710.8 45685.6 45660.1 45634.5 45608.9 45583.3 45557.7 45531.9 45506 45480.1 45454.2 45428.3 45402.2 45376 45349.8 45323.6 45297.4 45271 45244.5 45218.1 45191.6 45165.1 45138.4 45111.7 45084.9 45058.2 45031.5 45004.5 44977.6 44950.6 44923.6 44896.6 44869.4 44842.2 44815 44787.7 44760.5 44733.1 44705.7 44678.2 44650.8 44623.3 44595.7 44568 44540.4 44512.7 44485 44457.2 44429.3 44401.5 44373.6 44345.7 44317.7 44289.6 44261.5 44233.5 44205.4 44177.2 44148.9 44120.6 44092.4 44064.1 44035.7 44007.2 43978.8 43950.3 43921.9 43893.3 43864.7 43836 43807.4 43778.8 43750 43721.2 43692.4 43663.6 43634.8 43605.8 43576.8 43547.8 43518.9 43489.9 43460.7 43431.6 43402.4 43373.3 43344.1 43314.8 43285.5 43256.2 43226.8 43197.5 43168 43138.6 43109.1 43079.6 43050.1 43020.4 42990.8 42961.1 42931.4 42901.8 42872 42842.1 42812.3 42782.5 42752.6 42722.6 42692.6 42662.6 42632.6 42602.6 42572.5 42542.3 42512.1 42481.9 42451.7 42421.4 42391.1 42360.7 42330.4 42300 42269.5 42239 42208.5 42178 42147.4 42116.8 42086.1 42055.4 42024.7 41993.9 41963.1 41932.2 41901.3 41870.5 41839.6 41808.5 41777.5 41746.4 41715.4 41684.3 41653.1 41621.8 41590.6 41559.3 41528 41496.6 41465.2 41433.8 41402.3 41370.9 41339.3 41307.7 41276 41244.4 41212.7 41181 41149.1 41117.3 41085.5 41053.6 41021.7 40989.7 40957.6 40925.6 40893.5 40861.4 40829.1 40796.9 40764.7 40732.4 40700.1 40667.6 40635.2 40602.8 40570.3 40537.7 40505.1 40472.4 40439.8 40407.1 40374.3 40341.4 40308.6 40275.7 40242.8 40209.8 40176.7 40143.7 40110.6 40077.5 40044.2 40010.9 39977.7 39944.4 39911 39877.5 39844 39810.5 39777 39743.4 39709.7 39676 39642.2 39608.5 39574.7 39540.7 39506.8 39472.8 39438.8 39404.8 39370.6 39336.4 39302.2 39267.9 39233.7 39199.3 39164.8 39130.3 39095.9 39061.4 39026.7 38992 38957.3 38922.6 38887.8 38852.9 38818 38783 38748.1 38713.1 38677.9 38642.7 38607.5 38572.3 38537 38501.6 38466.2 38430.7 38395.2 38359.7 38324.1 38288.3 38252.6 38216.9 38181.1 38145.2 38109.2 38073.2 38037.2 38001.2 37965 37928.8 37892.5 37856.2 37819.9 37783.5 37747 37710.4 37673.9 37637.3 37600.6 37563.8 37527 37490.2 37453.3 37416.3 37379.3 37342.2 37305.1 37268 37230.7 37193.4 37156 37118.7 37081.2 37043.7 37006.1 36968.4 36930.8 36893.1 36855.2 36817.3 36779.4 36741.5 36703.5 36665.4 36627.2 36589 36550.7 36512.4 36474 36435.6 36397.1 36358.5 36319.9 36281.2 36242.5 36203.7 36164.9 36126 36087 36047.9 36008.8 35969.7 35930.5 35891.2 35851.9 35812.5 35773 35733.6 35693.9 35654.3 35614.6 35574.8 35535.1 35495.1 35455.2 35415.2 35375.1 35335.1 35294.8 35254.6 35214.3 35173.9 35133.5 35093 35052.4 35011.8 34971.1 34930.4 34889.5 34848.6 34807.7 34766.7 34725.7 34684.5 34643.3 34602.1 34560.7 34519.4 34477.9 34436.4 34394.8 34353.2 34311.5 34269.7 34227.9 34186 34144 34102 34059.9 34017.7 33975.5 33933.2 33890.9 33848.4 33805.9 33763.4 33720.8 33678.1 33635.3 33592.5 33549.6 33506.7 33463.7 33420.6 33377.4 33334.2 33290.9 33247.6 33204.1 33160.7 33117.1 33073.5 33029.8 32986 32942.2 32898.3 32854.3 32810.4 32766.2 32722.1 32677.8 32633.5 32589.2 32544.7 32500.2 32455.6 32410.9 32366.3 32321.4 32276.6 32231.7 32186.7 32141.6 32096.4 32051.2 32006 31960.6 31915.3 31869.7 31824.2 31778.5 31732.8 31687.1 31641.2 31595.3 31549.3 31503.2 31457.2 31410.9 31364.6 31318.3 31271.9 31225.4 31178.8 31132.2 31085.5 31038.7 30991.9 30944.9 30897.9 30850.9 30803.7 30756.6 30709.2 30661.8 30614.4 30566.9 30519.4 30471.6 30423.9 30376.1 30328.2 30280.3 30232.2 30184.1 30136 30087.7 30039.4 29991 29942.5 29893.9 29845.3 29796.6 29747.8 29698.9 29650 29601 29552 29502.7 29453.5 29404.1 29354.7 29305.3 29255.7 29206.1 29156.4 29106.6 29056.8 29006.8 28956.8 28906.7 28856.5 28806.3 28755.9 28705.5 28655 28604.4 28553.8 28503 28452.2 28401.3 28350.3 28299.4 28248.1 28196.9 28145.6 28094.3 28042.9 27991.3 27939.6 27887.9 27836.1 27784.4 27732.3 27680.3 27628.2 27576 27523.8 27471.3 27418.8 27366.3 27313.7 27261.1 27208.2 27155.3 27102.4 27049.3 26996.3 26943 26889.7 26836.3 26782.9 26729.4 26675.7 26621.9 26568.1 26514.3 26460.4 26406.2 26352.1 26297.9 26243.6 26189.3 26134.7 26080.1 26025.5 25970.8 25916.1 25861.2 25806.2 25751.2 25696.1 25641 25585.7 25530.3 25475 25419.6 25364.2 25308.6 25252.9 25197.3 25141.7 25086.1 25030.2 24974.4 24918.7 24862.9 24807.2 24751.3 24695.5 24639.8 24584.1 24528.5 24472.7 24417.5 24362.3 24307.3 24252.6 24197.9 24142.9 24087.9 24032.9 23977.5 23922.8 23874.2 23825.5 23776.9 23733.1 23684 23618.6 23553.2 23487.6 23413.2 23362 23331.7 23301.6 23271.8 23257.9 23253.6 23249.4 23245.2 23240.9 23239.4 23236.7 23231.3 23226 23220.6 23214.8 23187.9 23160.8 23133.4 23105.8 23062.3 22986.4 22917.4 22848.5 22779.7 22723.4 22672.2 22615.9 22559.6 22503.2 22440.5 22372.8 22304.7 22236.6 22168.5 22100 22028.7 21955.5 21882.2 21809 21733.7 21655.4 21575.6 21495.8 21416 21334.6 21250.3 21164.2 21078.1 20991.9 20903.9 20812.9 20720 20627 20534 20439.2 20341.1 20240.9 20140.6 20040.2 19937.9 19832 19723.8 19615.5 19507.1 19396.6 19282.3 19165.2 19048 18930.7 18810.9 18686.9 18560.1 18433.2 18306.2 18176.8 18042.7 17904.7 17766.6 17628.2 17486.4 17339.4 17189.7 17039.8 16889.9 16737.6 16579.8 16415.2 16250.3 16085.1 15913.6 15735.8 15557.7 15379.5 15201.4 15023.3 14838.7 14639.2 14438.8 14237.7 14022.5 13799.2 13586.1 13373.6 13161.7 12960.4 12751.5 12504 12254.2 12002.3 11713 11412.8 11157.4 10905 10655.2 10450.5 10237.9 9921.97 9598.39 9266.14 8833.45 8384.46 8071.58 7773.96 7494.49 7349.39 7198.35 6802.12 6357.65 5839.15 5089.77 4311.47 3778.92 3398 3251.04 3316.78 3383.1 3362.87 2777.25 1388.21 0