# Region type : patch OUTLET
# Faces  :    30
# Area   :    9.000001e-07
# Time        	areaAverage(N2rel)
1.2           	1.889155e+01
