# vtk DataFile Version 2.0
track0
ASCII
DATASET POLYDATA
POINTS 12278 float
-0.0205 0.001 1e-05
-0.02052 0.000999216 1e-05
-0.02054 0.000998592 1e-05
-0.02056 0.000998126 1e-05
-0.02058 0.000997818 1e-05
-0.0206 0.000997665 1e-05
-0.0205 0.00367778 1e-05
-0.02052 0.00367703 1e-05
-0.02054 0.00367643 1e-05
-0.02056 0.00367599 1e-05
-0.02058 0.00367569 1e-05
-0.0206 0.00367554 1e-05
-0.0205 0.00635556 1e-05
-0.02052 0.00635527 1e-05
-0.02054 0.00635505 1e-05
-0.02056 0.00635488 1e-05
-0.02058 0.00635476 1e-05
-0.0206 0.00635471 1e-05
-0.0205 0.00903333 1e-05
-0.02052 0.00903311 1e-05
-0.02054 0.00903293 1e-05
-0.02056 0.0090328 1e-05
-0.02058 0.00903271 1e-05
-0.0206 0.00903266 1e-05
-0.0205 0.0117111 1e-05
-0.02052 0.0117111 1e-05
-0.02054 0.011711 1e-05
-0.02056 0.011711 1e-05
-0.02058 0.011711 1e-05
-0.0206 0.011711 1e-05
-0.0205 0.0143889 1e-05
-0.02052 0.014389 1e-05
-0.02054 0.014389 1e-05
-0.02056 0.0143891 1e-05
-0.02058 0.0143891 1e-05
-0.0206 0.0143891 1e-05
-0.0205 0.0170667 1e-05
-0.02052 0.017067 1e-05
-0.02054 0.0170672 1e-05
-0.02056 0.0170674 1e-05
-0.02058 0.0170675 1e-05
-0.0206 0.0170676 1e-05
-0.0205 0.0197444 1e-05
-0.02052 0.019745 1e-05
-0.02054 0.0197454 1e-05
-0.02056 0.0197457 1e-05
-0.02058 0.0197459 1e-05
-0.0206 0.019746 1e-05
-0.0205 0.0224222 1e-05
-0.02052 0.022423 1e-05
-0.02054 0.0224236 1e-05
-0.02056 0.0224241 1e-05
-0.02058 0.0224244 1e-05
-0.0206 0.0224245 1e-05
-0.0205 0.0251 1e-05
-0.02052 0.0251003 1e-05
-0.02054 0.0251005 1e-05
-0.02056 0.0251007 1e-05
-0.02058 0.0251008 1e-05
-0.0206 0.0251008 1e-05
-0.0205 0.001 1e-05
-0.0203632 0.00100536 1e-05
-0.0202266 0.00101331 1e-05
-0.0200901 0.00102296 1e-05
-0.0200427 0.00102682 1e-05
-0.0198376 0.00104418 1e-05
-0.0196338 0.00107322 1e-05
-0.0194327 0.00111734 1e-05
-0.0192368 0.00118024 1e-05
-0.0190172 0.00124951 1e-05
-0.0189002 0.00128348 1e-05
-0.0187827 0.00131598 1e-05
-0.0186649 0.001347 1e-05
-0.0185469 0.001377 1e-05
-0.0183807 0.00141936 1e-05
-0.0182041 0.00146458 1e-05
-0.0180267 0.00150692 1e-05
-0.0178487 0.0015464 1e-05
-0.0176703 0.00158389 1e-05
-0.0174976 0.00161991 1e-05
-0.0172846 0.00166394 1e-05
-0.0170715 0.00170741 1e-05
-0.0168583 0.00175029 1e-05
-0.0166449 0.00179219 1e-05
-0.0163945 0.00184007 1e-05
-0.0163234 0.00185324 1e-05
-0.0162522 0.00186629 1e-05
-0.016181 0.00187921 1e-05
-0.0161097 0.00189201 1e-05
-0.0160387 0.0019046 1e-05
-0.0157586 0.0019535 1e-05
-0.0154779 0.00199931 1e-05
-0.0151968 0.00204225 1e-05
-0.0149154 0.00208283 1e-05
-0.0146381 0.00212134 1e-05
-0.0143838 0.00215527 1e-05
-0.0141293 0.00218766 1e-05
-0.0138747 0.00221855 1e-05
-0.0136198 0.00224797 1e-05
-0.0132934 0.00228369 1e-05
-0.0132791 0.00228515 1e-05
-0.0132648 0.0022866 1e-05
-0.0132504 0.00228805 1e-05
-0.0132361 0.0022895 1e-05
-0.0132214 0.00229098 1e-05
-0.0129776 0.00231543 1e-05
-0.0127337 0.00233865 1e-05
-0.0124897 0.00236061 1e-05
-0.0122456 0.0023813 1e-05
-0.0120025 0.00240058 1e-05
-0.0117547 0.00241909 1e-05
-0.0115067 0.00243627 1e-05
-0.0112587 0.00245231 1e-05
-0.0110106 0.00246734 1e-05
-0.0107632 0.00248136 1e-05
-0.0105252 0.00249391 1e-05
-0.0102872 0.00250547 1e-05
-0.0100491 0.00251602 1e-05
-0.00981105 0.00252575 1e-05
-0.00957337 0.00253472 1e-05
-0.00934491 0.00254261 1e-05
-0.00911643 0.00254974 1e-05
-0.00888792 0.00255611 1e-05
-0.0086594 0.00256172 1e-05
-0.00843108 0.00256669 1e-05
-0.00821175 0.00257085 1e-05
-0.00799241 0.00257439 1e-05
-0.00777306 0.00257731 1e-05
-0.0075537 0.00257953 1e-05
-0.00733443 0.00258115 1e-05
-0.00712387 0.00258213 1e-05
-0.0069133 0.00258257 1e-05
-0.00670273 0.00258244 1e-05
-0.00649216 0.00258163 1e-05
-0.0062816 0.00258019 1e-05
-0.00607944 0.0025782 1e-05
-0.0058773 0.00257567 1e-05
-0.00567516 0.00257258 1e-05
-0.00547303 0.00256876 1e-05
-0.00527083 0.00256421 1e-05
-0.00507675 0.00255914 1e-05
-0.00488269 0.00255345 1e-05
-0.00468865 0.00254713 1e-05
-0.00449464 0.00253999 1e-05
-0.00430044 0.00253193 1e-05
-0.00411412 0.00252331 1e-05
-0.00392784 0.0025139 1e-05
-0.00374159 0.00250371 1e-05
-0.0035554 0.00249257 1e-05
-0.00336883 0.00248019 1e-05
-0.00318995 0.00246715 1e-05
-0.00301115 0.00245303 1e-05
-0.00283245 0.00243778 1e-05
-0.00265386 0.00242124 1e-05
-0.00247443 0.00240318 1e-05
-0.0023027 0.00238429 1e-05
-0.00213114 0.00236388 1e-05
-0.00195982 0.00234158 1e-05
-0.00178875 0.00231742 1e-05
-0.00161577 0.0022911 1e-05
-0.00161562 0.00229107 1e-05
-0.00161548 0.00229105 1e-05
-0.00161533 0.00229103 1e-05
-0.00161518 0.002291 1e-05
-0.00161503 0.00229098 1e-05
-0.00145031 0.00226408 1e-05
-0.00128599 0.00223483 1e-05
-0.00112209 0.00220328 1e-05
-0.000958641 0.0021695 1e-05
-0.000791418 0.00213241 1e-05
-0.000633135 0.0020943 1e-05
-0.000475556 0.00205337 1e-05
-0.000318719 0.00200969 1e-05
-0.000162834 0.00196272 1e-05
0 0.00190957 1e-05
3.73722e-05 0.00189636 1e-05
7.46443e-05 0.00188287 1e-05
0.000111818 0.00186911 1e-05
0.000148894 0.00185509 1e-05
0.000179223 0.00184338 1e-05
0.000249056 0.00181595 1e-05
0.000318478 0.0017875 1e-05
0.000387476 0.00175803 1e-05
0.000456034 0.00172756 1e-05
0.000528387 0.0016942 1e-05
0.000634886 0.00164322 1e-05
0.000740278 0.00158999 1e-05
0.00084451 0.00153453 1e-05
0.000947621 0.001477 1e-05
0.00102 0.00143469 1e-05
0.00102818 0.00142975 1e-05
0.00103635 0.00142479 1e-05
0.0010445 0.00141982 1e-05
0.00105265 0.00141483 1e-05
0.00106088 0.00140977 1e-05
0.00116821 0.00134359 1e-05
0.00127404 0.00127504 1e-05
0.00137827 0.00120408 1e-05
0.00148099 0.00113095 1e-05
0.00159681 0.00104511 1e-05
0.00159695 0.001045 1e-05
0.00159709 0.00104489 1e-05
0.00159723 0.00104478 1e-05
0.00159738 0.00104467 1e-05
0.00159752 0.00104456 1e-05
0.00169221 0.000970971 1e-05
0.0017855 0.000895617 1e-05
0.00187731 0.000818463 1e-05
0.0019677 0.000739654 1e-05
0.00203811 0.000676368 1e-05
0.00205815 0.000657897 1e-05
0.00207811 0.000639338 1e-05
0.00209799 0.000620689 1e-05
0.00211781 0.000601978 1e-05
0.00213833 0.000582484 1e-05
0.00219148 0.000531646 1e-05
0.00224414 0.000480291 1e-05
0.00229629 0.000428411 1e-05
0.00234789 0.000375999 1e-05
0.00239421 0.000328255 1e-05
0.00245203 0.000267816 1e-05
0.00250923 0.000206778 1e-05
0.00256579 0.000145156 1e-05
0.00262184 8.3069e-05 1e-05
0.00268334 1.37739e-05 1e-05
0.00268573 1.10191e-05 1e-05
0.00268813 8.2633e-06 1e-05
0.00269052 5.50646e-06 1e-05
0.00269292 2.74858e-06 1e-05
0.0026953 0 1e-05
0.0027592 -7.37368e-05 1e-05
0.00282248 -0.000148005 1e-05
0.00288512 -0.000222813 1e-05
0.00294709 -0.000298173 1e-05
0.00300416 -0.000368654 1e-05
0.00304985 -0.000425909 1e-05
0.00309522 -0.000483409 1e-05
0.00314029 -0.000541151 1e-05
0.00318511 -0.000599087 1e-05
0.00323259 -0.000661034 1e-05
0.00325065 -0.000684846 1e-05
0.00326867 -0.000708698 1e-05
0.00328663 -0.00073259 1e-05
0.00330454 -0.000756522 1e-05
0.0033221 -0.00078009 1e-05
0.00339025 -0.000871878 1e-05
0.00345779 -0.000964108 1e-05
0.0035247 -0.00105679 1e-05
0.00359108 -0.00114986 1e-05
0.00365394 -0.00123896 1e-05
0.00368037 -0.00127682 1e-05
0.00370673 -0.00131474 1e-05
0.00373301 -0.00135271 1e-05
0.00375924 -0.00139071 1e-05
0.00378611 -0.00142975 1e-05
0.00383011 -0.00149389 1e-05
0.0038739 -0.00155818 1e-05
0.00391746 -0.00162262 1e-05
0.0039608 -0.00168722 1e-05
0.00400297 -0.00175044 1e-05
0.00407116 -0.00185325 1e-05
0.00413894 -0.00195633 1e-05
0.00420629 -0.00205969 1e-05
0.00427335 -0.00216324 1e-05
0.00434393 -0.00227289 1e-05
0.00434999 -0.00228237 1e-05
0.00435605 -0.00229186 1e-05
0.00436211 -0.00230135 1e-05
0.00436816 -0.00231084 1e-05
0.00437419 -0.0023203 1e-05
0.00445503 -0.00244725 1e-05
0.00453542 -0.00257449 1e-05
0.00461542 -0.00270197 1e-05
0.00469506 -0.00282968 1e-05
0.00477293 -0.00295498 1e-05
0.00479956 -0.00299798 1e-05
0.00482617 -0.003041 1e-05
0.00485275 -0.00308404 1e-05
0.00487932 -0.00312708 1e-05
0.00490609 -0.00317045 1e-05
0.00496673 -0.00326868 1e-05
0.00502722 -0.00336701 1e-05
0.00508756 -0.00346543 1e-05
0.00514777 -0.00356394 1e-05
0.00520742 -0.00366161 1e-05
0.00526046 -0.00374851 1e-05
0.00531346 -0.00383544 1e-05
0.00536642 -0.0039224 1e-05
0.00541941 -0.00400934 1e-05
0.00547262 -0.00409654 1e-05
0.00551559 -0.00416686 1e-05
0.00555853 -0.00423719 1e-05
0.00560143 -0.00430755 1e-05
0.00564432 -0.00437792 1e-05
0.00568714 -0.00444811 1e-05
0.00575842 -0.00456487 1e-05
0.00582975 -0.00468161 1e-05
0.00590113 -0.00479831 1e-05
0.00597264 -0.00491494 1e-05
0.00604356 -0.00503012 1e-05
0.0060798 -0.00508875 1e-05
0.00611604 -0.00514737 1e-05
0.0061523 -0.00520599 1e-05
0.00618858 -0.00526459 1e-05
0.00622496 -0.00532326 1e-05
0.00630375 -0.00545007 1e-05
0.00638274 -0.00557676 1e-05
0.00646192 -0.00570333 1e-05
0.00654137 -0.00582973 1e-05
0.00661893 -0.00595231 1e-05
0.0066628 -0.00602119 1e-05
0.00670671 -0.00609003 1e-05
0.00675068 -0.00615884 1e-05
0.00679474 -0.0062276 1e-05
0.00683917 -0.00629671 1e-05
0.0069111 -0.00640819 1e-05
0.00698327 -0.00651951 1e-05
0.0070557 -0.00663065 1e-05
0.00712843 -0.00674161 1e-05
0.00719878 -0.00684814 1e-05
0.00726941 -0.00695432 1e-05
0.00734026 -0.00706035 1e-05
0.00741134 -0.00716623 1e-05
0.00748272 -0.0072719 1e-05
0.00755563 -0.00737909 1e-05
0.00760113 -0.00744549 1e-05
0.00764676 -0.00751181 1e-05
0.00769252 -0.00757804 1e-05
0.00773841 -0.00764418 1e-05
0.00778313 -0.0077083 1e-05
0.00790091 -0.0078763 1e-05
0.00801946 -0.00804376 1e-05
0.00813878 -0.00821066 1e-05
0.0082591 -0.00837684 1e-05
0.00837203 -0.00853077 1e-05
0.00837963 -0.008541 1e-05
0.00838724 -0.00855122 1e-05
0.00839485 -0.00856143 1e-05
0.00840246 -0.00857165 1e-05
0.00841009 -0.00858189 1e-05
0.00852118 -0.0087307 1e-05
0.00863309 -0.00887889 1e-05
0.00874584 -0.00902644 1e-05
0.00885946 -0.00917332 1e-05
0.00896551 -0.00930855 1e-05
0.00902998 -0.00938971 1e-05
0.00909472 -0.00947065 1e-05
0.00915972 -0.00955138 1e-05
0.00922502 -0.00963187 1e-05
0.00929248 -0.00971438 1e-05
0.0093467 -0.00978017 1e-05
0.00940112 -0.0098458 1e-05
0.00945574 -0.00991126 1e-05
0.00951056 -0.00997656 1e-05
0.0095636 -0.0100393 1e-05
[...]
POINT_DATA 12278
 FIELD attributes 2
p 1 12278 float
177015 177097 177170 177233 177287 177332
108949 108967 108983 108997 109010 109020
87755.5 87765 87774.4 87783.5 87792.5 87800.9
79937.7 79944 79950.3 79956.4 79962.5 79968.4
77146.8 77156.1 77165.3 77174.5 77183.7 77192.9
77564.2 77577.8 77591.4 77604.9 77618.5 77632
81097.4 81109.8 81122.1 81134.2 81146.1 81157.8
90923.9 90943.6 90962.6 90980.9 90998.5 91015.4
117356 117388 117419 117447 117473 117497
215475 215285 215093 214899 214703 214505
177015 173410 169083 164505 162838 158907 155524 152873 144708 134667 129224 123796 119857 119247 118395 112349 106450 102328 101433 100566 99583.8 98601.6 97174.9 95706.6 93991 93624.5 93257.5 92890 92409 91911.2 89991.7 88187.8 86673.8 85886.4 85109.7 84423.9 83759.2 83109.3 82457.6 81623.6 81588.7 81559.8 81531.8 81503.7 81474.9 80942.1 80409.8 79878 79346.7 78921.6 78495.4 78086.2 77688.6 77312.9 76947 76597 76246.7 75923 75621.5 75320.5 75031 74741.3 74462.8 74200 73937.4 73683.7 73430 73179.9 72943.8 72707.7 72478.8 72249.9 72019.4 71799.9 71580.7 71367.1 71153.5 70934.9 70724 70513.4 70306.2 70099.3 69886.3 69673.9 69461.8 69249.9 69038.4 68823.2 68595.2 68367.6 68134.7 67899 67654.9 67402.3 67136.4 66856.1 66542.4 66230.2 65919.6 65606.6 65606.3 65605.9 65605.5 65605.1 65604.7 65213.6 64828.2 64448.5 64050.5 63570.5 63055.1 62545.4 61844.4 61071.4 60258.3 60009.8 59771.7 59544.5 59317.8 59132.4 58575.8 58016.9 57456 56982.9 56514.8 55910.3 55307.6 54767.8 54226.7 53841.7 53783.7 53725.7 53670.5 53623 53574.9 53021.8 52461.5 51943.5 51471.2 50925.3 50924.4 50923.5 50922.7 50922 50921.3 50494.1 50059.4 49656.9 49321.3 49052.3 48953.2 48853.6 48782.8 48713.3 48640.8 48452.2 48261.4 48068.7 47924.3 47792.1 47619.5 47450.9 47311.3 47169.6 47010.4 47003.9 46997.5 46991 46985.1 46979.6 46874.3 46762 46647.3 46534 46427.1 46391.5 46354.8 46315.2 46274.9 46231.1 46211 46190.7 46170.3 46149.1 46127.9 46102.6 46075.8 46038.8 45996.5 45954.9 45957.4 45959.5 45958.8 45957.9 45957 45945.7 45934 45921.8 45906.8 45891.6 45901.3 45910.4 45915 45918.9 45922.6 45921.8 45920.9 45920.1 45919 45917.9 45931.5 45945.1 45957.7 45968.5 45978.7 45989 45999.2 46009 46018.7 46028.5 46040 46051.4 46062.6 46073.7 46084.6 46103 46121.4 46139.9 46158.4 46177 46185.5 46194.1 46202.8 46211.9 46221 46243.6 46266.4 46289.7 46313.6 46337.4 46344.8 46352.1 46359.9 46368.1 46376.4 46399.6 46422.9 46447.1 46472.3 46497 46505.9 46514.9 46524.5 46534.7 46545 46564.6 46584.4 46604.8 46626.7 46647.9 46661.8 46675.7 46691.4 46707.6 46724.3 46735.9 46747.4 46759.2 46771.8 46784.2 46806.2 46828.3 46853.7 46879.9 46905.8 46906.9 46908 46909.4 46910.7 46912.1 46933.3 46954.7 46976.5 47000.4 47022.7 47032.2 47041.8 47052.8 47063.8 47075.3 47085 47094.7 47104.5 47114.9 47125.1 47142.3 47159.6 47178.5 47198.4 47217.7 47220.3 47222.9 47225.8 47228.7 47231.7 47246 47260.5 47275 47290.7 47305.6 47319.3 47333.5 47348.9 47364.5 47381.3 47381.4 47381.5 47381.6 47381.7 47381.8 47396.4 47411.1 47426 47441.9 47457.1 47469.1 47481.7 47495.3 47509 47522.1 47522.7 47523.3 47523.9 47524.6 47525.3 47537.1 47548.9 47560.9 47573.5 47586 47596.3 47606.6 47618.2 47630.4 47642.4 47646.4 47650.8 47655.4 47660.1 47664.9 47670.8 47676.7 47682.6 47688.8 47695.2 47704 47713.1 47722.8 47733.7 47744.1 47751.7 47759.8 47768.7 47777.7 47786.8 47788.9 47791.3 47793.9 47796.4 47799 47804.4 47809.8 47815.1 47820.7 47826.7 47832.9 47839.5 47846.4 47854.5 47862.3 47867.3 47872.4 47878.6 47885.3 47892 47895.6 47900.2 47904.9 47909.5 47914.8 47915 47915.3 47915.6 47915.8 47916.1 47920.2 47924.4 47928.5 47932.6 47937.7 47940 47942.6 47945.5 47949.4 47953.3 47954.4 47955.5 47957.4 47960.2 47962.8 47962.8 47963.3 47964.2 47965 47966.5 47965.6 47965.3 47965 47964.7 47964.4 47964.3 47964.3 47964.3 47964.3 47964.3 47962.9 47961.6 47960.2 47958.8 47958 47954.9 47952.3 47949.7 47947.5 47945.6 47941.3 47937 47933.2 47930.2 47927.1 47921.6 47916 47911.1 47906.8 47902.5 47895.9 47889.3 47883.2 47877.5 47872 47864.3 47856.9 47849.6 47842.4 47835.7 47827 47818.6 47810.2 47801.8 47793.7 47785.1 47776.7 47768.3 47759.9 47750 47749.2 47748.5 47747.7 47747 47746.2 47735.8 47725.3 47714.8 47704.4 47694 47682.3 47670.8 47659.3 47647.8 47636.5 47623.5 47611 47598.5 47586 47573.7 47559.7 47546.1 47532.6 47519.2 47505.9 47491.1 47476.3 47461.9 47447.6 47433.4 47417.6 47401.9 47386.6 47371.4 47356.2 47339.7 47323.1 47306.8 47290.7 47274.6 47257.3 47239.9 47222.8 47205.8 47188.9 47170.8 47152.7 47134.6 47116.9 47099.2 47080.4 47061.5 47042.7 47024.1 47005.6 46986.2 46966.7 46947.1 46927.8 46908.5 46888.4 46868.2 46848 46828 46808.1 46787.3 46766.5 46745.7 46724.9 46704.4 46683 46661.6 46640.2 46618.8 46597.6 46575.8 46553.8 46531.8 46509.8 46488.1 46465.7 46443.2 46420.7 46398.1 46375.8 46353 46330 46306.9 46283.9 46261.1 46237.7 46214.3 46190.8 46167.3 46144 46120.2 46096.3 46072.4 46048.4 46024.6 46000.4 45976.1 45951.8 45927.5 45903.2 45878.6 45853.9 45829.2 45804.5 45779.9 45754.9 45729.8 45704.8 45679.7 45654.7 45629.4 45604 45578.6 45553.2 45527.8 45502.2 45476.4 45450.7 45425 45399.3 45373.3 45347.3 45321.3 45295.3 45269.3 45243 45216.7 45190.4 45164.1 45137.8 45111.3 45084.7 45058.2 45031.6 45005 44978.3 44951.4 44924.6 44897.8 44871 44844 44816.9 44789.8 44762.8 44735.7 44708.5 44681.2 44653.9 44626.6 44599.3 44571.8 44544.3 44516.8 44489.3 44461.8 44434.1 44406.4 44378.7 44351 44323.3 44295.4 44267.4 44239.5 44211.6 44183.7 44155.6 44127.5 44099.4 44071.3 44043.2 44014.9 43986.6 43958.3 43930 43901.7 43873.3 43844.8 43816.3 43787.8 43759.3 43730.7 43702 43673.4 43644.7 43616.1 43587.3 43558.4 43529.6 43500.7 43471.9 43442.9 43413.9 43384.9 43355.9 43326.9 43297.7 43268.6 43239.4 43210.2 43181 43151.7 43122.3 43093 43063.6 43034.3 43004.8 42975.3 42945.7 42916.2 42886.7 42857 42827.3 42797.6 42767.9 42738.2 42708.4 42678.5 42648.7 42618.8 42588.9 42558.9 42528.9 42498.8 42468.8 42438.8 42408.6 42378.4 42348.2 42317.9 42287.7 42257.4 42227 42196.6 42166.2 42135.8 42105.2 42074.7 42044.1 42013.5 41982.9 41952.2 41921.5 41890.7 41860 41829.2 41798.3 41767.4 41736.4 41705.5 41674.5 41643.4 41612.3 41581.2 41550.1 41518.9 41487.6 41456.3 41425 41393.7 41362.4 41330.9 41299.4 41267.9 41236.4 41204.8 41173.1 41141.4 41109.7 41078 41046.3 41014.4 40982.5 40950.6 40918.7 40886.7 40854.6 40822.5 40790.4 40758.3 40726.1 40693.8 40661.5 40629.2 40596.8 40564.5 40532 40499.4 40466.9 40434.3 40401.8 40369 40336.3 40303.5 40270.8 40237.9 40205 40172 40139 40106.1 40073 40039.9 40006.7 39973.4 39940.2 39907 39873.6 39840.1 39806.7 39773.3 39739.8 39706.2 39672.5 39638.8 39605.1 39571.4 39537.5 39503.6 39469.7 39435.8 39401.8 39367.7 39333.6 39299.4 39265.3 39231 39196.7 39162.3 39127.9 39093.5 39059 39024.5 38989.8 38955.2 38920.5 38885.8 38851 38816.1 38781.2 38746.3 38711.3 38676.2 38641 38605.9 38570.7 38535.5 38500.1 38464.7 38429.3 38393.9 38358.4 38322.8 38287.1 38251.4 38215.7 38180 38144.1 38108.2 38072.2 38036.2 38000.2 37964.1 37927.9 37891.7 37855.4 37819.1 37782.7 37746.2 37709.7 37673.2 37636.7 37600 37563.2 37526.4 37489.7 37452.8 37415.8 37378.8 37341.8 37304.7 37267.6 37230.3 37193 37155.7 37118.3 37080.9 37043.4 37005.8 36968.2 36930.5 36892.8 36855 36817.1 36779.2 36741.3 36703.3 36665.2 36627 36588.8 36550.6 36512.3 36473.9 36435.5 36397 36358.5 36319.9 36281.2 36242.4 36203.6 36164.8 36126 36086.9 36047.9 36008.8 35969.7 35930.5 35891.2 35851.9 35812.5 35773 35733.6 35694 35654.3 35614.6 35574.9 35535.1 35495.2 35455.2 35415.2 35375.2 35335.1 35294.9 35254.6 35214.3 35173.9 35133.5 35093 35052.4 35011.8 34971.1 34930.4 34889.5 34848.7 34807.7 34766.7 34725.7 34684.5 34643.3 34602.1 34560.7 34519.4 34477.9 34436.4 34394.8 34353.2 34311.5 34269.7 34227.8 34185.9 34144 34102 34059.8 34017.7 33975.4 33933.1 33890.8 33848.4 33805.9 33763.3 33720.7 33678 33635.2 33592.4 33549.5 33506.6 33463.6 33420.5 33377.3 33334.1 33290.8 33247.5 33204 33160.5 33117 33073.3 33029.7 32985.9 32942 32898.1 32854.2 32810.2 32766 32721.9 32677.6 32633.3 32589 32544.5 32500 32455.4 32410.7 32366.1 32321.2 32276.3 32231.4 32186.4 32141.4 32096.2 32051 32005.7 31960.3 31915 31869.4 31823.9 31778.2 31732.5 31686.8 31640.9 31595 31549 31502.9 31456.9 31410.6 31364.3 31318 31271.5 31225.1 31178.5 31131.8 31085.1 31038.4 30991.6 30944.6 30897.6 30850.5 30803.3 30756.2 30708.8 30661.5 30614 30566.5 30519 30471.3 30423.5 30375.7 30327.8 30279.9 30231.8 30183.7 30135.5 30087.3 30039 29990.5 29942.1 29893.5 29844.9 29796.2 29747.4 29698.5 29649.6 29600.5 29551.5 29502.3 29453 29403.7 29354.3 29304.9 29255.3 29205.6 29155.9 29106.1 29056.3 29006.3 28956.3 28906.2 28856 28805.8 28755.4 28705 28654.5 28603.9 28553.4 28502.5 28451.7 28400.8 28349.9 28298.9 28247.7 28196.4 28145.2 28093.8 28042.4 27990.8 27939.1 27887.4 27835.7 27783.9 27731.8 27679.8 27627.7 27575.5 27523.3 27470.8 27418.4 27365.8 27313.2 27260.6 27207.7 27154.8 27101.9 27048.8 26995.8 26942.5 26889.2 26835.8 26782.4 26728.9 26675.2 26621.4 26567.6 26513.8 26459.9 26405.7 26351.6 26297.4 26243.1 26188.8 26134.2 26079.6 26025 25970.3 25915.6 25860.6 25805.7 25750.7 25695.6 25640.5 25585.2 25529.8 25474.5 25419.1 25363.7 25308 25252.4 25196.8 25141.2 25085.5 25029.6 24973.8 24918.1 24862.4 24806.6 24750.7 24695 24639.3 24583.6 24528 24472.2 24416.9 24361.8 24306.8 24252 24197.4 24142.4 24087.4 24032.4 23977 23922.3 23873.6 23825 23776.4 23732.6 23683.5 23618.1 23552.7 23487.1 23412.6 23361.5 23331.1 23301 23271.2 23257 23252.9 23248.7 23244.5 23240.4 23238.8 23236.2 23231 23225.7 23220.5 23214.7 23187.8 23160.6 23133.1 23105.4 23061.8 22985.9 22916.9 22848 22779.1 22722.9 22671.7 22615.4 22559.1 22502.7 22440 22372.3 22304.2 22236.1 22168 22099.5 22028.2 21955 21881.8 21808.5 21733.2 21654.9 21575.1 21495.3 21415.5 21334.1 21249.9 21163.7 21077.6 20991.4 20903.4 20812.5 20719.5 20626.6 20533.5 20438.7 20340.6 20240.4 20140.1 20039.7 19937.4 19831.5 19723.3 19615 19506.6 19396.2 19281.8 19164.8 19047.6 18930.2 18810.5 18686.4 18559.7 18432.8 18305.8 18176.3 18042.3 17904.3 17766.2 17627.8 17486 17339 17189.3 17039.5 16889.5 16737.2 16579.4 16414.9 16250 16084.7 15913.2 15735.5 15557.4 15379.2 15201 15023 14838.3 14638.8 14438.5 14237.4 14022.2 13798.9 13585.8 13373.3 13161.4 12960.1 12751.2 12503.7 12253.9 12002 11712.7 11412.6 11157.2 10904.7 10655 10450.2 10237.6 9921.66 9598.08 9265.92 8833.24 8384.25 8071.49 7773.88 7494.29 7349.18 7198.15 6801.68 6357.21 5838.97 5089.6 4311.32 3779.16 3398.24 3250.9 3316.63 3382.94 3362.01 2777.12 1388.15 0