# vtk DataFile Version 2.0
track0
ASCII
DATASET POLYDATA
POINTS 12278 float
-0.0205 0.001 1e-05
-0.02052 0.000999216 1e-05
-0.02054 0.000998592 1e-05
-0.02056 0.000998126 1e-05
-0.02058 0.000997818 1e-05
-0.0206 0.000997665 1e-05
-0.0205 0.00367778 1e-05
-0.02052 0.00367703 1e-05
-0.02054 0.00367643 1e-05
-0.02056 0.00367599 1e-05
-0.02058 0.00367569 1e-05
-0.0206 0.00367554 1e-05
-0.0205 0.00635556 1e-05
-0.02052 0.00635527 1e-05
-0.02054 0.00635505 1e-05
-0.02056 0.00635488 1e-05
-0.02058 0.00635476 1e-05
-0.0206 0.00635471 1e-05
-0.0205 0.00903333 1e-05
-0.02052 0.00903311 1e-05
-0.02054 0.00903293 1e-05
-0.02056 0.0090328 1e-05
-0.02058 0.00903271 1e-05
-0.0206 0.00903266 1e-05
-0.0205 0.0117111 1e-05
-0.02052 0.0117111 1e-05
-0.02054 0.011711 1e-05
-0.02056 0.011711 1e-05
-0.02058 0.011711 1e-05
-0.0206 0.011711 1e-05
-0.0205 0.0143889 1e-05
-0.02052 0.014389 1e-05
-0.02054 0.014389 1e-05
-0.02056 0.0143891 1e-05
-0.02058 0.0143891 1e-05
-0.0206 0.0143891 1e-05
-0.0205 0.0170667 1e-05
-0.02052 0.017067 1e-05
-0.02054 0.0170672 1e-05
-0.02056 0.0170674 1e-05
-0.02058 0.0170675 1e-05
-0.0206 0.0170676 1e-05
-0.0205 0.0197444 1e-05
-0.02052 0.019745 1e-05
-0.02054 0.0197454 1e-05
-0.02056 0.0197457 1e-05
-0.02058 0.0197459 1e-05
-0.0206 0.019746 1e-05
-0.0205 0.0224222 1e-05
-0.02052 0.022423 1e-05
-0.02054 0.0224236 1e-05
-0.02056 0.0224241 1e-05
-0.02058 0.0224244 1e-05
-0.0206 0.0224245 1e-05
-0.0205 0.0251 1e-05
-0.02052 0.0251003 1e-05
-0.02054 0.0251005 1e-05
-0.02056 0.0251007 1e-05
-0.02058 0.0251008 1e-05
-0.0206 0.0251008 1e-05
-0.0205 0.001 1e-05
-0.0203632 0.00100536 1e-05
-0.0202266 0.00101331 1e-05
-0.0200901 0.00102296 1e-05
-0.0200427 0.00102682 1e-05
-0.0198376 0.00104418 1e-05
-0.0196338 0.00107322 1e-05
-0.0194327 0.00111734 1e-05
-0.0192368 0.00118024 1e-05
-0.0190172 0.00124951 1e-05
-0.0189002 0.00128348 1e-05
-0.0187827 0.00131598 1e-05
-0.0186649 0.001347 1e-05
-0.0185469 0.001377 1e-05
-0.0183807 0.00141936 1e-05
-0.0182041 0.00146458 1e-05
-0.0180267 0.00150692 1e-05
-0.0178487 0.0015464 1e-05
-0.0176703 0.00158389 1e-05
-0.0174976 0.00161991 1e-05
-0.0172846 0.00166394 1e-05
-0.0170715 0.00170741 1e-05
-0.0168583 0.00175029 1e-05
-0.0166449 0.00179219 1e-05
-0.0163945 0.00184007 1e-05
-0.0163234 0.00185324 1e-05
-0.0162522 0.00186629 1e-05
-0.016181 0.00187921 1e-05
-0.0161097 0.00189201 1e-05
-0.0160387 0.0019046 1e-05
-0.0157586 0.0019535 1e-05
-0.0154779 0.00199931 1e-05
-0.0151968 0.00204225 1e-05
-0.0149154 0.00208283 1e-05
-0.0146381 0.00212134 1e-05
-0.0143838 0.00215527 1e-05
-0.0141293 0.00218766 1e-05
-0.0138747 0.00221855 1e-05
-0.0136198 0.00224797 1e-05
-0.0132934 0.00228369 1e-05
-0.0132791 0.00228515 1e-05
-0.0132648 0.0022866 1e-05
-0.0132504 0.00228805 1e-05
-0.0132361 0.0022895 1e-05
-0.0132214 0.00229098 1e-05
-0.0129776 0.00231543 1e-05
-0.0127337 0.00233865 1e-05
-0.0124897 0.00236061 1e-05
-0.0122456 0.0023813 1e-05
-0.0120025 0.00240058 1e-05
-0.0117547 0.00241909 1e-05
-0.0115067 0.00243627 1e-05
-0.0112587 0.00245231 1e-05
-0.0110106 0.00246734 1e-05
-0.0107632 0.00248136 1e-05
-0.0105252 0.00249391 1e-05
-0.0102872 0.00250547 1e-05
-0.0100491 0.00251602 1e-05
-0.00981105 0.00252575 1e-05
-0.00957337 0.00253472 1e-05
-0.00934491 0.00254261 1e-05
-0.00911643 0.00254974 1e-05
-0.00888792 0.00255611 1e-05
-0.0086594 0.00256172 1e-05
-0.00843108 0.00256669 1e-05
-0.00821175 0.00257085 1e-05
-0.00799241 0.00257439 1e-05
-0.00777306 0.00257731 1e-05
-0.0075537 0.00257953 1e-05
-0.00733443 0.00258115 1e-05
-0.00712387 0.00258213 1e-05
-0.0069133 0.00258256 1e-05
-0.00670273 0.00258244 1e-05
-0.00649216 0.00258163 1e-05
-0.0062816 0.00258019 1e-05
-0.00607944 0.0025782 1e-05
-0.0058773 0.00257567 1e-05
-0.00567516 0.00257258 1e-05
-0.00547303 0.00256876 1e-05
-0.00527083 0.00256421 1e-05
-0.00507675 0.00255914 1e-05
-0.00488269 0.00255345 1e-05
-0.00468865 0.00254713 1e-05
-0.00449464 0.00253999 1e-05
-0.00430044 0.00253193 1e-05
-0.00411412 0.00252331 1e-05
-0.00392784 0.0025139 1e-05
-0.00374159 0.00250371 1e-05
-0.0035554 0.00249257 1e-05
-0.00336883 0.00248019 1e-05
-0.00318995 0.00246714 1e-05
-0.00301115 0.00245303 1e-05
-0.00283245 0.00243778 1e-05
-0.00265386 0.00242124 1e-05
-0.00247443 0.00240318 1e-05
-0.0023027 0.00238429 1e-05
-0.00213114 0.00236388 1e-05
-0.00195982 0.00234158 1e-05
-0.00178875 0.00231742 1e-05
-0.00161577 0.0022911 1e-05
-0.00161563 0.00229107 1e-05
-0.00161548 0.00229105 1e-05
-0.00161533 0.00229103 1e-05
-0.00161519 0.002291 1e-05
-0.00161504 0.00229098 1e-05
-0.00145032 0.00226408 1e-05
-0.001286 0.00223483 1e-05
-0.0011221 0.00220328 1e-05
-0.000958644 0.0021695 1e-05
-0.000791418 0.00213241 1e-05
-0.000633135 0.0020943 1e-05
-0.000475556 0.00205337 1e-05
-0.000318719 0.00200969 1e-05
-0.000162834 0.00196272 1e-05
0 0.00190957 1e-05
3.73704e-05 0.00189636 1e-05
7.46406e-05 0.00188287 1e-05
0.000111812 0.00186911 1e-05
0.000148886 0.00185509 1e-05
0.000179215 0.00184338 1e-05
0.000249049 0.00181595 1e-05
0.000318473 0.0017875 1e-05
0.000387472 0.00175803 1e-05
0.000456032 0.00172756 1e-05
0.000528387 0.00169419 1e-05
0.000634886 0.00164322 1e-05
0.000740278 0.00158999 1e-05
0.00084451 0.00153452 1e-05
0.000947621 0.001477 1e-05
0.00102 0.00143469 1e-05
0.00102817 0.00142975 1e-05
0.00103634 0.00142479 1e-05
0.0010445 0.00141982 1e-05
0.00105265 0.00141483 1e-05
0.00106088 0.00140977 1e-05
0.00116821 0.00134359 1e-05
0.00127404 0.00127503 1e-05
0.00137827 0.00120408 1e-05
0.00148099 0.00113095 1e-05
0.0015968 0.00104511 1e-05
0.00159694 0.001045 1e-05
0.00159709 0.00104489 1e-05
0.00159723 0.00104478 1e-05
0.00159737 0.00104466 1e-05
0.00159752 0.00104455 1e-05
0.00169221 0.000970966 1e-05
0.0017855 0.000895613 1e-05
0.0018773 0.000818461 1e-05
0.00196769 0.000739653 1e-05
0.0020381 0.000676368 1e-05
0.00205814 0.000657896 1e-05
0.00207811 0.000639335 1e-05
0.00209799 0.000620685 1e-05
0.00211781 0.000601971 1e-05
0.00213833 0.000582477 1e-05
0.00219148 0.00053164 1e-05
0.00224414 0.000480286 1e-05
0.00229628 0.000428407 1e-05
0.00234789 0.000375997 1e-05
0.0023942 0.000328255 1e-05
0.00245203 0.000267814 1e-05
0.00250922 0.000206774 1e-05
0.00256579 0.000145151 1e-05
0.00262184 8.30617e-05 1e-05
0.00268334 1.37643e-05 1e-05
0.00268573 1.10115e-05 1e-05
0.00268813 8.25756e-06 1e-05
0.00269052 5.50264e-06 1e-05
0.00269291 2.74668e-06 1e-05
0.00269529 0 1e-05
0.00275919 -7.37368e-05 1e-05
0.00282247 -0.000148005 1e-05
0.00288511 -0.000222813 1e-05
0.00294708 -0.000298173 1e-05
0.00300416 -0.000368654 1e-05
0.00304984 -0.000425911 1e-05
0.00309522 -0.000483413 1e-05
0.00314029 -0.000541157 1e-05
0.00318511 -0.000599096 1e-05
0.00323259 -0.000661045 1e-05
0.00325065 -0.000684855 1e-05
0.00326867 -0.000708704 1e-05
0.00328663 -0.000732594 1e-05
0.00330453 -0.000756524 1e-05
0.0033221 -0.00078009 1e-05
0.00339024 -0.000871878 1e-05
0.00345778 -0.000964108 1e-05
0.0035247 -0.00105679 1e-05
0.00359107 -0.00114986 1e-05
0.00365393 -0.00123896 1e-05
0.00368037 -0.00127682 1e-05
0.00370673 -0.00131474 1e-05
0.00373301 -0.00135271 1e-05
0.00375924 -0.00139072 1e-05
0.00378611 -0.00142976 1e-05
0.00383011 -0.0014939 1e-05
0.00387389 -0.00155819 1e-05
0.00391746 -0.00162263 1e-05
0.0039608 -0.00168722 1e-05
0.00400297 -0.00175044 1e-05
0.00407116 -0.00185325 1e-05
0.00413894 -0.00195633 1e-05
0.00420628 -0.0020597 1e-05
0.00427335 -0.00216325 1e-05
0.00434393 -0.0022729 1e-05
0.00434999 -0.00228238 1e-05
0.00435605 -0.00229186 1e-05
0.0043621 -0.00230135 1e-05
0.00436815 -0.00231084 1e-05
0.00437418 -0.0023203 1e-05
0.00445503 -0.00244725 1e-05
0.00453542 -0.00257449 1e-05
0.00461541 -0.00270197 1e-05
0.00469505 -0.00282968 1e-05
0.00477292 -0.00295498 1e-05
0.00479956 -0.00299798 1e-05
0.00482616 -0.003041 1e-05
0.00485274 -0.00308404 1e-05
0.00487932 -0.00312709 1e-05
0.00490609 -0.00317045 1e-05
0.00496673 -0.00326869 1e-05
0.00502722 -0.00336702 1e-05
0.00508756 -0.00346544 1e-05
0.00514777 -0.00356394 1e-05
0.00520742 -0.00366161 1e-05
0.00526046 -0.00374851 1e-05
0.00531346 -0.00383544 1e-05
0.00536642 -0.0039224 1e-05
0.00541941 -0.00400934 1e-05
0.00547262 -0.00409654 1e-05
0.00551559 -0.00416686 1e-05
0.00555853 -0.00423719 1e-05
0.00560143 -0.00430755 1e-05
0.00564432 -0.00437792 1e-05
0.00568714 -0.00444811 1e-05
0.00575842 -0.00456487 1e-05
0.00582975 -0.00468161 1e-05
0.00590113 -0.00479831 1e-05
0.00597264 -0.00491493 1e-05
0.00604356 -0.00503012 1e-05
0.0060798 -0.00508874 1e-05
0.00611605 -0.00514737 1e-05
0.0061523 -0.00520598 1e-05
0.00618858 -0.00526459 1e-05
0.00622497 -0.00532326 1e-05
0.00630376 -0.00545006 1e-05
0.00638274 -0.00557675 1e-05
0.00646192 -0.00570332 1e-05
0.00654137 -0.00582971 1e-05
0.00661893 -0.00595229 1e-05
0.0066628 -0.00602117 1e-05
0.00670672 -0.00609002 1e-05
0.00675069 -0.00615883 1e-05
0.00679475 -0.00622759 1e-05
0.00683919 -0.00629671 1e-05
0.00691111 -0.00640818 1e-05
0.00698328 -0.00651949 1e-05
0.00705571 -0.00663064 1e-05
0.00712843 -0.00674159 1e-05
0.00719878 -0.00684811 1e-05
0.00726941 -0.0069543 1e-05
0.00734027 -0.00706033 1e-05
0.00741135 -0.00716622 1e-05
0.00748274 -0.0072719 1e-05
0.00755566 -0.00737909 1e-05
0.00760115 -0.00744548 1e-05
0.00764678 -0.00751179 1e-05
0.00769253 -0.00757801 1e-05
0.00773841 -0.00764414 1e-05
0.00778313 -0.00770826 1e-05
0.00790091 -0.00787626 1e-05
0.00801946 -0.00804371 1e-05
0.00813878 -0.00821061 1e-05
0.0082591 -0.0083768 1e-05
0.00837203 -0.00853073 1e-05
0.00837964 -0.00854096 1e-05
0.00838725 -0.00855119 1e-05
0.00839487 -0.00856141 1e-05
0.00840249 -0.00857164 1e-05
0.00841013 -0.00858189 1e-05
0.00852121 -0.00873068 1e-05
0.00863311 -0.00887886 1e-05
0.00874585 -0.0090264 1e-05
0.00885946 -0.00917327 1e-05
0.00896551 -0.0093085 1e-05
0.00902999 -0.00938966 1e-05
0.00909474 -0.00947062 1e-05
0.00915975 -0.00955136 1e-05
0.00922506 -0.00963186 1e-05
0.00929253 -0.00971438 1e-05
0.00934674 -0.00978016 1e-05
0.00940115 -0.00984577 1e-05
0.00945576 -0.00991122 1e-05
0.00951057 -0.00997651 1e-05
0.0095636 -0.0100393 1e-05
[...]
POINT_DATA 12278
 FIELD attributes 2
p 1 12278 float
177015 177097 177170 177233 177287 177332
108949 108967 108983 108997 109010 109020
87755.3 87764.9 87774.3 87783.4 87792.4 87800.8
79937.6 79943.9 79950.2 79956.3 79962.3 79968.3
77146.7 77156 77165.2 77174.4 77183.6 77192.8
77564.1 77577.7 77591.3 77604.8 77618.4 77631.9
81097.3 81109.7 81122 81134.1 81146 81157.7
90923.8 90943.5 90962.5 90980.8 90998.4 91015.3
117356 117388 117419 117447 117473 117497
215475 215285 215093 214899 214703 214505
177015 173410 169083 164504 162838 158906 155524 152873 144708 134667 129224 123795 119857 119246 118394 112349 106450 102328 101433 100566 99583.7 98601.4 97174.8 95706.5 93990.9 93624.4 93257.4 92889.8 92408.8 91911.1 89991.6 88187.6 86673.7 85886.3 85109.6 84423.8 83759 83109.2 82457.5 81623.5 81588.6 81559.7 81531.6 81503.6 81474.8 80942 80409.7 79877.9 79346.6 78921.5 78495.3 78086.1 77688.4 77312.8 76946.9 76596.9 76246.6 75922.9 75621.4 75320.4 75030.9 74741.2 74462.7 74199.9 73937.3 73683.6 73429.9 73179.8 72943.6 72707.6 72478.7 72249.8 72019.2 71799.8 71580.6 71366.9 71153.4 70934.7 70723.9 70513.2 70306.1 70099.2 69886.2 69673.8 69461.6 69249.7 69038.2 68823.1 68595 68367.4 68134.5 67898.9 67654.8 67402.1 67136.2 66856 66542.2 66230.1 65919.4 65606.4 65606.1 65605.7 65605.3 65605 65604.6 65213.5 64828 64448.3 64050.3 63570.4 63054.9 62545.2 61844.2 61071.1 60258 60009.6 59771.5 59544.3 59317.7 59132.3 58575.6 58016.7 57455.8 56982.7 56514.6 55910 55307.3 54767.6 54226.5 53841.5 53783.5 53725.4 53670.3 53622.8 53574.7 53021.5 52461.2 51943.2 51470.9 50925 50924.1 50923.2 50922.4 50921.7 50921 50493.8 50059.1 49656.6 49321 49052 48952.9 48853.3 48782.5 48713 48640.4 48451.9 48261 48068.4 47924 47791.8 47619.1 47450.6 47311 47169.3 47010.1 47003.6 46997.1 46990.7 46984.8 46979.2 46874 46761.7 46646.9 46533.7 46426.7 46391.2 46354.5 46314.9 46274.6 46230.8 46210.7 46190.4 46169.9 46148.7 46127.6 46102.2 46075.5 46038.4 45996.1 45954.6 45957 45959.1 45958.4 45957.6 45956.7 45945.4 45933.6 45921.5 45906.4 45891.2 45901 45910.1 45914.6 45918.6 45922.3 45921.5 45920.6 45919.7 45918.7 45917.6 45931.1 45944.7 45957.4 45968.1 45978.4 45988.7 45998.9 46008.7 46018.4 46028.2 46039.7 46051.1 46062.3 46073.4 46084.3 46102.7 46121.1 46139.6 46158.1 46176.7 46185.2 46193.8 46202.5 46211.6 46220.7 46243.3 46266.1 46289.4 46313.3 46337.1 46344.5 46351.9 46359.6 46367.8 46376.1 46399.3 46422.6 46446.8 46472 46496.8 46505.6 46514.6 46524.2 46534.4 46544.7 46564.4 46584.1 46604.5 46626.4 46647.6 46661.5 46675.4 46691.1 46707.4 46724.1 46735.6 46747.2 46758.9 46771.6 46784 46805.9 46828 46853.5 46879.7 46905.6 46906.7 46907.8 46909.1 46910.5 46911.9 46933 46954.4 46976.2 47000.1 47022.5 47032 47041.6 47052.6 47063.6 47075 47084.7 47094.5 47104.3 47114.7 47124.9 47142 47159.4 47178.3 47198.1 47217.5 47220 47222.7 47225.6 47228.5 47231.5 47245.8 47260.3 47274.8 47290.4 47305.4 47319.1 47333.3 47348.7 47364.3 47381.1 47381.2 47381.3 47381.4 47381.5 47381.6 47396.2 47410.9 47425.8 47441.6 47456.9 47468.9 47481.5 47495.1 47508.8 47521.9 47522.5 47523.1 47523.7 47524.4 47525.1 47536.9 47548.7 47560.7 47573.3 47585.8 47596.1 47606.4 47618 47630.2 47642.2 47646.2 47650.6 47655.2 47659.9 47664.8 47670.6 47676.5 47682.4 47688.6 47695 47703.8 47712.9 47722.6 47733.5 47743.9 47751.5 47759.6 47768.6 47777.5 47786.6 47788.7 47791.2 47793.7 47796.2 47798.8 47804.2 47809.6 47815 47820.5 47826.6 47832.8 47839.3 47846.2 47854.3 47862.1 47867.2 47872.2 47878.5 47885.1 47891.8 47895.4 47900.1 47904.7 47909.3 47914.6 47914.9 47915.1 47915.4 47915.6 47916 47920.1 47924.2 47928.3 47932.4 47937.5 47939.8 47942.4 47945.3 47949.2 47953.1 47954.2 47955.3 47957.2 47960 47962.7 47962.6 47963.1 47964 47964.8 47966.3 47965.4 47965.2 47964.9 47964.6 47964.2 47964.2 47964.2 47964.1 47964.1 47964.1 47962.8 47961.4 47960.1 47958.7 47957.9 47954.7 47952.2 47949.6 47947.3 47945.5 47941.1 47936.8 47933.1 47930 47927 47921.4 47915.9 47911 47906.7 47902.4 47895.8 47889.2 47883.1 47877.4 47871.9 47864.2 47856.7 47849.5 47842.2 47835.6 47826.8 47818.5 47810.1 47801.7 47793.6 47785 47776.6 47768.2 47759.7 47749.9 47749.1 47748.4 47747.6 47746.8 47746.1 47735.6 47725.2 47714.7 47704.2 47693.9 47682.2 47670.7 47659.2 47647.6 47636.3 47623.4 47610.9 47598.4 47585.9 47573.6 47559.6 47546 47532.5 47519.1 47505.8 47491 47476.2 47461.8 47447.5 47433.3 47417.5 47401.8 47386.5 47371.3 47356.1 47339.6 47323 47306.7 47290.6 47274.6 47257.2 47239.9 47222.7 47205.7 47188.8 47170.7 47152.6 47134.6 47116.8 47099.1 47080.3 47061.5 47042.6 47024.1 47005.6 46986.1 46966.6 46947 46927.7 46908.5 46888.4 46868.2 46848 46827.9 46808 46787.3 46766.5 46745.6 46724.9 46704.3 46683 46661.6 46640.1 46618.8 46597.6 46575.7 46553.8 46531.8 46509.8 46488 46465.7 46443.1 46420.6 46398.1 46375.8 46352.9 46329.9 46306.9 46283.9 46261 46237.7 46214.2 46190.8 46167.3 46143.9 46120.2 46096.2 46072.3 46048.4 46024.6 46000.4 45976.1 45951.8 45927.4 45903.2 45878.6 45853.9 45829.2 45804.5 45779.9 45754.9 45729.8 45704.8 45679.7 45654.7 45629.4 45604 45578.6 45553.1 45527.8 45502.1 45476.4 45450.7 45425 45399.3 45373.3 45347.3 45321.3 45295.3 45269.3 45243 45216.7 45190.4 45164.1 45137.8 45111.3 45084.7 45058.2 45031.6 45005 44978.3 44951.4 44924.6 44897.8 44871 44844 44816.9 44789.8 44762.8 44735.7 44708.5 44681.2 44653.9 44626.6 44599.3 44571.8 44544.3 44516.8 44489.3 44461.8 44434.1 44406.4 44378.7 44351 44323.3 44295.4 44267.4 44239.5 44211.6 44183.7 44155.6 44127.5 44099.4 44071.3 44043.2 44014.9 43986.6 43958.3 43930 43901.7 43873.3 43844.8 43816.3 43787.8 43759.3 43730.7 43702 43673.4 43644.7 43616.1 43587.3 43558.4 43529.6 43500.7 43471.9 43442.9 43413.9 43384.9 43355.9 43326.9 43297.7 43268.6 43239.4 43210.2 43181 43151.7 43122.3 43093 43063.6 43034.3 43004.8 42975.2 42945.7 42916.2 42886.7 42857 42827.3 42797.6 42767.9 42738.2 42708.4 42678.5 42648.7 42618.8 42588.9 42558.9 42528.9 42498.8 42468.8 42438.7 42408.6 42378.4 42348.1 42317.9 42287.7 42257.3 42227 42196.6 42166.2 42135.8 42105.2 42074.7 42044.1 42013.5 41982.9 41952.2 41921.5 41890.7 41860 41829.2 41798.3 41767.4 41736.4 41705.5 41674.5 41643.4 41612.3 41581.2 41550.1 41518.9 41487.6 41456.3 41425 41393.7 41362.3 41330.9 41299.3 41267.8 41236.3 41204.8 41173.1 41141.4 41109.7 41078 41046.2 41014.4 40982.5 40950.5 40918.6 40886.7 40854.6 40822.5 40790.4 40758.2 40726.1 40693.8 40661.5 40629.1 40596.8 40564.4 40531.9 40499.4 40466.9 40434.3 40401.7 40369 40336.3 40303.5 40270.7 40237.9 40205 40172 40139 40106 40073 40039.8 40006.6 39973.4 39940.2 39906.9 39873.6 39840.1 39806.7 39773.2 39739.7 39706.1 39672.4 39638.8 39605.1 39571.4 39537.5 39503.6 39469.7 39435.8 39401.8 39367.7 39333.5 39299.4 39265.2 39231 39196.7 39162.3 39127.9 39093.5 39059 39024.4 38989.8 38955.1 38920.5 38885.8 38850.9 38816 38781.1 38746.2 38711.2 38676.2 38641 38605.8 38570.7 38535.4 38500.1 38464.7 38429.3 38393.8 38358.3 38322.7 38287.1 38251.4 38215.7 38179.9 38144.1 38108.1 38072.2 38036.2 38000.2 37964 37927.8 37891.6 37855.4 37819.1 37782.7 37746.2 37709.7 37673.2 37636.6 37599.9 37563.2 37526.4 37489.6 37452.8 37415.8 37378.8 37341.7 37304.7 37267.5 37230.3 37193 37155.7 37118.3 37080.9 37043.4 37005.8 36968.1 36930.5 36892.8 36855 36817.1 36779.2 36741.3 36703.3 36665.2 36627 36588.8 36550.6 36512.3 36473.9 36435.4 36396.9 36358.4 36319.9 36281.1 36242.4 36203.6 36164.8 36125.9 36086.9 36047.9 36008.8 35969.7 35930.5 35891.2 35851.8 35812.4 35773 35733.5 35693.9 35654.3 35614.6 35574.8 35535.1 35495.2 35455.2 35415.2 35375.1 35335.1 35294.8 35254.6 35214.3 35173.9 35133.5 35093 35052.4 35011.8 34971.1 34930.4 34889.5 34848.6 34807.7 34766.7 34725.7 34684.5 34643.3 34602 34560.7 34519.4 34477.9 34436.4 34394.8 34353.1 34311.5 34269.7 34227.8 34185.9 34143.9 34102 34059.8 34017.6 33975.4 33933.1 33890.8 33848.3 33805.8 33763.3 33720.7 33678 33635.2 33592.4 33549.5 33506.5 33463.6 33420.4 33377.3 33334.1 33290.8 33247.5 33204 33160.5 33116.9 33073.3 33029.7 32985.8 32942 32898.1 32854.1 32810.2 32766 32721.8 32677.6 32633.3 32589 32544.5 32499.9 32455.4 32410.7 32366 32321.2 32276.3 32231.4 32186.4 32141.4 32096.2 32051 32005.7 31960.3 31915 31869.4 31823.8 31778.2 31732.5 31686.8 31640.9 31595 31549 31502.9 31456.8 31410.6 31364.3 31317.9 31271.5 31225.1 31178.5 31131.8 31085.1 31038.3 30991.5 30944.5 30897.6 30850.5 30803.3 30756.2 30708.8 30661.4 30614 30566.5 30519 30471.2 30423.5 30375.7 30327.8 30279.9 30231.8 30183.7 30135.5 30087.3 30039 29990.5 29942 29893.5 29844.8 29796.2 29747.3 29698.5 29649.5 29600.5 29551.5 29502.3 29453 29403.7 29354.3 29304.9 29255.2 29205.6 29155.9 29106.1 29056.3 29006.3 28956.3 28906.2 28856 28805.8 28755.4 28705 28654.5 28603.9 28553.3 28502.5 28451.7 28400.8 28349.8 28298.9 28247.7 28196.4 28145.1 28093.8 28042.4 27990.7 27939.1 27887.4 27835.6 27783.8 27731.8 27679.8 27627.6 27575.4 27523.3 27470.8 27418.3 27365.8 27313.2 27260.6 27207.7 27154.8 27101.9 27048.8 26995.8 26942.5 26889.2 26835.8 26782.3 26728.9 26675.2 26621.4 26567.6 26513.8 26459.9 26405.7 26351.5 26297.3 26243.1 26188.8 26134.2 26079.6 26025 25970.3 25915.6 25860.6 25805.6 25750.6 25695.6 25640.5 25585.2 25529.8 25474.5 25419.1 25363.7 25308 25252.4 25196.8 25141.2 25085.5 25029.6 24973.8 24918.1 24862.4 24806.6 24750.7 24694.9 24639.3 24583.6 24527.9 24472.2 24416.9 24361.8 24306.7 24252 24197.3 24142.4 24087.4 24032.4 23977 23922.3 23873.6 23825 23776.4 23732.6 23683.5 23618.1 23552.6 23487.1 23412.6 23361.4 23331 23301 23271.2 23257 23252.8 23248.7 23244.5 23240.4 23238.8 23236.2 23230.9 23225.7 23220.4 23214.7 23187.7 23160.5 23133.1 23105.4 23061.8 22985.9 22916.9 22848 22779.1 22722.8 22671.7 22615.4 22559.1 22502.7 22440 22372.3 22304.2 22236.1 22168 22099.5 22028.2 21955 21881.7 21808.5 21733.2 21654.9 21575.1 21495.3 21415.5 21334.1 21249.8 21163.7 21077.6 20991.4 20903.4 20812.4 20719.5 20626.5 20533.5 20438.7 20340.6 20240.4 20140.1 20039.7 19937.4 19831.5 19723.3 19615 19506.6 19396.2 19281.8 19164.7 19047.5 18930.2 18810.4 18686.4 18559.7 18432.8 18305.7 18176.3 18042.3 17904.3 17766.1 17627.8 17485.9 17339 17189.3 17039.4 16889.5 16737.2 16579.4 16414.9 16249.9 16084.7 15913.2 15735.5 15557.3 15379.2 15201 15023 14838.3 14638.8 14438.5 14237.4 14022.1 13798.9 13585.8 13373.3 13161.4 12960.1 12751.2 12503.7 12253.9 12002 11712.7 11412.6 11157.2 10904.7 10654.9 10450.2 10237.6 9921.64 9598.06 9265.9 8833.22 8384.23 8071.48 7773.86 7494.27 7349.17 7198.13 6801.65 6357.19 5838.96 5089.59 4311.3 3779.15 3398.24 3250.89 3316.62 3382.93 3361.99 2777.12 1388.15 0