# vtk DataFile Version 2.0
track0
ASCII
DATASET POLYDATA
POINTS 12278 float
-0.0205 0.001 1e-05
-0.02052 0.000999216 1e-05
-0.02054 0.000998592 1e-05
-0.02056 0.000998126 1e-05
-0.02058 0.000997818 1e-05
-0.0206 0.000997665 1e-05
-0.0205 0.00367778 1e-05
-0.02052 0.00367703 1e-05
-0.02054 0.00367643 1e-05
-0.02056 0.00367599 1e-05
-0.02058 0.00367569 1e-05
-0.0206 0.00367554 1e-05
-0.0205 0.00635556 1e-05
-0.02052 0.00635527 1e-05
-0.02054 0.00635505 1e-05
-0.02056 0.00635488 1e-05
-0.02058 0.00635476 1e-05
-0.0206 0.00635471 1e-05
-0.0205 0.00903333 1e-05
-0.02052 0.00903311 1e-05
-0.02054 0.00903293 1e-05
-0.02056 0.0090328 1e-05
-0.02058 0.00903271 1e-05
-0.0206 0.00903266 1e-05
-0.0205 0.0117111 1e-05
-0.02052 0.0117111 1e-05
-0.02054 0.011711 1e-05
-0.02056 0.011711 1e-05
-0.02058 0.011711 1e-05
-0.0206 0.011711 1e-05
-0.0205 0.0143889 1e-05
-0.02052 0.014389 1e-05
-0.02054 0.014389 1e-05
-0.02056 0.0143891 1e-05
-0.02058 0.0143891 1e-05
-0.0206 0.0143891 1e-05
-0.0205 0.0170667 1e-05
-0.02052 0.017067 1e-05
-0.02054 0.0170672 1e-05
-0.02056 0.0170674 1e-05
-0.02058 0.0170675 1e-05
-0.0206 0.0170676 1e-05
-0.0205 0.0197444 1e-05
-0.02052 0.019745 1e-05
-0.02054 0.0197454 1e-05
-0.02056 0.0197457 1e-05
-0.02058 0.0197459 1e-05
-0.0206 0.019746 1e-05
-0.0205 0.0224222 1e-05
-0.02052 0.022423 1e-05
-0.02054 0.0224236 1e-05
-0.02056 0.0224241 1e-05
-0.02058 0.0224244 1e-05
-0.0206 0.0224245 1e-05
-0.0205 0.0251 1e-05
-0.02052 0.0251003 1e-05
-0.02054 0.0251005 1e-05
-0.02056 0.0251007 1e-05
-0.02058 0.0251008 1e-05
-0.0206 0.0251008 1e-05
-0.0205 0.001 1e-05
-0.0203632 0.00100536 1e-05
-0.0202266 0.00101331 1e-05
-0.0200901 0.00102296 1e-05
-0.0200427 0.00102682 1e-05
-0.0198376 0.00104418 1e-05
-0.0196338 0.00107322 1e-05
-0.0194327 0.00111734 1e-05
-0.0192368 0.00118024 1e-05
-0.0190172 0.00124951 1e-05
-0.0189002 0.00128348 1e-05
-0.0187827 0.00131598 1e-05
-0.0186649 0.001347 1e-05
-0.0185469 0.001377 1e-05
-0.0183807 0.00141936 1e-05
-0.0182041 0.00146458 1e-05
-0.0180267 0.00150692 1e-05
-0.0178487 0.0015464 1e-05
-0.0176703 0.00158389 1e-05
-0.0174976 0.00161991 1e-05
-0.0172846 0.00166394 1e-05
-0.0170715 0.00170741 1e-05
-0.0168583 0.00175029 1e-05
-0.0166449 0.00179219 1e-05
-0.0163945 0.00184007 1e-05
-0.0163234 0.00185324 1e-05
-0.0162522 0.00186629 1e-05
-0.016181 0.00187921 1e-05
-0.0161097 0.00189201 1e-05
-0.0160387 0.0019046 1e-05
-0.0157586 0.0019535 1e-05
-0.0154779 0.00199931 1e-05
-0.0151968 0.00204225 1e-05
-0.0149154 0.00208283 1e-05
-0.0146381 0.00212134 1e-05
-0.0143838 0.00215527 1e-05
-0.0141293 0.00218766 1e-05
-0.0138747 0.00221855 1e-05
-0.0136198 0.00224797 1e-05
-0.0132934 0.00228369 1e-05
-0.0132791 0.00228515 1e-05
-0.0132648 0.0022866 1e-05
-0.0132504 0.00228805 1e-05
-0.0132361 0.0022895 1e-05
-0.0132214 0.00229098 1e-05
-0.0129776 0.00231543 1e-05
-0.0127337 0.00233865 1e-05
-0.0124897 0.00236061 1e-05
-0.0122456 0.0023813 1e-05
-0.0120025 0.00240058 1e-05
-0.0117547 0.00241909 1e-05
-0.0115067 0.00243627 1e-05
-0.0112587 0.00245231 1e-05
-0.0110106 0.00246734 1e-05
-0.0107632 0.00248136 1e-05
-0.0105252 0.00249391 1e-05
-0.0102872 0.00250547 1e-05
-0.0100491 0.00251602 1e-05
-0.00981105 0.00252575 1e-05
-0.00957337 0.00253472 1e-05
-0.00934491 0.00254261 1e-05
-0.00911643 0.00254974 1e-05
-0.00888792 0.00255611 1e-05
-0.0086594 0.00256172 1e-05
-0.00843108 0.00256669 1e-05
-0.00821175 0.00257085 1e-05
-0.00799241 0.00257439 1e-05
-0.00777306 0.00257731 1e-05
-0.0075537 0.00257953 1e-05
-0.00733443 0.00258115 1e-05
-0.00712387 0.00258213 1e-05
-0.0069133 0.00258256 1e-05
-0.00670273 0.00258244 1e-05
-0.00649216 0.00258163 1e-05
-0.0062816 0.00258019 1e-05
-0.00607944 0.0025782 1e-05
-0.0058773 0.00257567 1e-05
-0.00567516 0.00257258 1e-05
-0.00547303 0.00256876 1e-05
-0.00527083 0.00256421 1e-05
-0.00507675 0.00255914 1e-05
-0.00488269 0.00255345 1e-05
-0.00468865 0.00254713 1e-05
-0.00449464 0.00253999 1e-05
-0.00430044 0.00253193 1e-05
-0.00411412 0.00252331 1e-05
-0.00392784 0.0025139 1e-05
-0.00374159 0.00250371 1e-05
-0.0035554 0.00249257 1e-05
-0.00336883 0.00248019 1e-05
-0.00318995 0.00246714 1e-05
-0.00301115 0.00245303 1e-05
-0.00283245 0.00243778 1e-05
-0.00265386 0.00242124 1e-05
-0.00247443 0.00240318 1e-05
-0.0023027 0.00238429 1e-05
-0.00213114 0.00236388 1e-05
-0.00195982 0.00234158 1e-05
-0.00178875 0.00231742 1e-05
-0.00161577 0.0022911 1e-05
-0.00161563 0.00229107 1e-05
-0.00161548 0.00229105 1e-05
-0.00161533 0.00229103 1e-05
-0.00161519 0.002291 1e-05
-0.00161504 0.00229098 1e-05
-0.00145032 0.00226408 1e-05
-0.001286 0.00223483 1e-05
-0.0011221 0.00220328 1e-05
-0.000958644 0.0021695 1e-05
-0.000791418 0.00213241 1e-05
-0.000633135 0.0020943 1e-05
-0.000475556 0.00205337 1e-05
-0.000318719 0.00200969 1e-05
-0.000162834 0.00196272 1e-05
0 0.00190957 1e-05
3.73704e-05 0.00189636 1e-05
7.46406e-05 0.00188287 1e-05
0.000111812 0.00186911 1e-05
0.000148886 0.00185509 1e-05
0.000179215 0.00184338 1e-05
0.000249049 0.00181595 1e-05
0.000318473 0.0017875 1e-05
0.000387472 0.00175803 1e-05
0.000456032 0.00172756 1e-05
0.000528387 0.00169419 1e-05
0.000634886 0.00164322 1e-05
0.000740278 0.00158999 1e-05
0.00084451 0.00153452 1e-05
0.000947621 0.001477 1e-05
0.00102 0.00143469 1e-05
0.00102817 0.00142975 1e-05
0.00103634 0.00142479 1e-05
0.0010445 0.00141982 1e-05
0.00105265 0.00141483 1e-05
0.00106088 0.00140977 1e-05
0.00116821 0.00134359 1e-05
0.00127404 0.00127503 1e-05
0.00137827 0.00120408 1e-05
0.00148099 0.00113095 1e-05
0.0015968 0.00104511 1e-05
0.00159694 0.001045 1e-05
0.00159709 0.00104489 1e-05
0.00159723 0.00104478 1e-05
0.00159737 0.00104466 1e-05
0.00159752 0.00104455 1e-05
0.00169221 0.000970966 1e-05
0.0017855 0.000895613 1e-05
0.0018773 0.000818461 1e-05
0.00196769 0.000739653 1e-05
0.0020381 0.000676368 1e-05
0.00205814 0.000657896 1e-05
0.00207811 0.000639335 1e-05
0.00209799 0.000620685 1e-05
0.00211781 0.000601971 1e-05
0.00213833 0.000582477 1e-05
0.00219148 0.00053164 1e-05
0.00224414 0.000480286 1e-05
0.00229628 0.000428407 1e-05
0.00234789 0.000375997 1e-05
0.0023942 0.000328255 1e-05
0.00245203 0.000267814 1e-05
0.00250922 0.000206774 1e-05
0.00256579 0.000145151 1e-05
0.00262184 8.30617e-05 1e-05
0.00268334 1.37643e-05 1e-05
0.00268573 1.10115e-05 1e-05
0.00268813 8.25756e-06 1e-05
0.00269052 5.50264e-06 1e-05
0.00269291 2.74668e-06 1e-05
0.00269529 0 1e-05
0.00275919 -7.37368e-05 1e-05
0.00282247 -0.000148005 1e-05
0.00288511 -0.000222813 1e-05
0.00294708 -0.000298173 1e-05
0.00300416 -0.000368654 1e-05
0.00304984 -0.000425911 1e-05
0.00309522 -0.000483413 1e-05
0.00314029 -0.000541157 1e-05
0.00318511 -0.000599096 1e-05
0.00323259 -0.000661045 1e-05
0.00325065 -0.000684855 1e-05
0.00326867 -0.000708704 1e-05
0.00328663 -0.000732594 1e-05
0.00330453 -0.000756524 1e-05
0.0033221 -0.00078009 1e-05
0.00339024 -0.000871878 1e-05
0.00345778 -0.000964108 1e-05
0.0035247 -0.00105679 1e-05
0.00359107 -0.00114986 1e-05
0.00365393 -0.00123896 1e-05
0.00368037 -0.00127682 1e-05
0.00370673 -0.00131474 1e-05
0.00373301 -0.00135271 1e-05
0.00375924 -0.00139072 1e-05
0.00378611 -0.00142976 1e-05
0.00383011 -0.0014939 1e-05
0.00387389 -0.00155819 1e-05
0.00391746 -0.00162263 1e-05
0.0039608 -0.00168722 1e-05
0.00400297 -0.00175044 1e-05
0.00407116 -0.00185325 1e-05
0.00413894 -0.00195633 1e-05
0.00420628 -0.0020597 1e-05
0.00427335 -0.00216325 1e-05
0.00434393 -0.0022729 1e-05
0.00434999 -0.00228238 1e-05
0.00435605 -0.00229186 1e-05
0.0043621 -0.00230135 1e-05
0.00436815 -0.00231084 1e-05
0.00437418 -0.0023203 1e-05
0.00445503 -0.00244725 1e-05
0.00453542 -0.00257449 1e-05
0.00461541 -0.00270197 1e-05
0.00469505 -0.00282968 1e-05
0.00477292 -0.00295498 1e-05
0.00479956 -0.00299798 1e-05
0.00482616 -0.003041 1e-05
0.00485274 -0.00308404 1e-05
0.00487932 -0.00312709 1e-05
0.00490609 -0.00317045 1e-05
0.00496673 -0.00326869 1e-05
0.00502722 -0.00336702 1e-05
0.00508756 -0.00346544 1e-05
0.00514777 -0.00356394 1e-05
0.00520742 -0.00366161 1e-05
0.00526046 -0.00374851 1e-05
0.00531346 -0.00383544 1e-05
0.00536642 -0.0039224 1e-05
0.00541941 -0.00400934 1e-05
0.00547262 -0.00409654 1e-05
0.00551559 -0.00416686 1e-05
0.00555853 -0.00423719 1e-05
0.00560143 -0.00430755 1e-05
0.00564432 -0.00437792 1e-05
0.00568714 -0.00444811 1e-05
0.00575842 -0.00456487 1e-05
0.00582975 -0.00468161 1e-05
0.00590113 -0.00479831 1e-05
0.00597264 -0.00491493 1e-05
0.00604356 -0.00503012 1e-05
0.0060798 -0.00508874 1e-05
0.00611605 -0.00514737 1e-05
0.0061523 -0.00520598 1e-05
0.00618858 -0.00526459 1e-05
0.00622497 -0.00532326 1e-05
0.00630376 -0.00545006 1e-05
0.00638274 -0.00557675 1e-05
0.00646192 -0.00570332 1e-05
0.00654137 -0.00582971 1e-05
0.00661893 -0.00595229 1e-05
0.0066628 -0.00602117 1e-05
0.00670672 -0.00609002 1e-05
0.00675069 -0.00615883 1e-05
0.00679475 -0.00622759 1e-05
0.00683919 -0.00629671 1e-05
0.00691111 -0.00640818 1e-05
0.00698328 -0.00651949 1e-05
0.00705571 -0.00663064 1e-05
0.00712843 -0.00674159 1e-05
0.00719878 -0.00684811 1e-05
0.00726941 -0.0069543 1e-05
0.00734027 -0.00706033 1e-05
0.00741135 -0.00716622 1e-05
0.00748274 -0.0072719 1e-05
0.00755566 -0.00737909 1e-05
0.00760115 -0.00744548 1e-05
0.00764678 -0.00751179 1e-05
0.00769253 -0.00757801 1e-05
0.00773841 -0.00764414 1e-05
0.00778313 -0.00770826 1e-05
0.00790091 -0.00787626 1e-05
0.00801946 -0.00804371 1e-05
0.00813878 -0.00821061 1e-05
0.0082591 -0.0083768 1e-05
0.00837203 -0.00853073 1e-05
0.00837964 -0.00854096 1e-05
0.00838725 -0.00855119 1e-05
0.00839487 -0.00856141 1e-05
0.00840249 -0.00857164 1e-05
0.00841013 -0.00858189 1e-05
0.00852121 -0.00873068 1e-05
0.00863311 -0.00887886 1e-05
0.00874585 -0.0090264 1e-05
0.00885946 -0.00917327 1e-05
0.00896551 -0.0093085 1e-05
0.00902999 -0.00938966 1e-05
0.00909474 -0.00947062 1e-05
0.00915975 -0.00955136 1e-05
0.00922506 -0.00963186 1e-05
0.00929253 -0.00971438 1e-05
0.00934674 -0.00978016 1e-05
0.00940115 -0.00984577 1e-05
0.00945576 -0.00991122 1e-05
0.00951057 -0.00997651 1e-05
0.0095636 -0.0100393 1e-05
[...]
POINT_DATA 12278
 FIELD attributes 1
U 3 12278 float
9.72339 	0.381311 	0 9.77871 	0.305049 	0 9.83405 	0.228765 	0 9.8894 	0.152465 	0 9.94476 	0.0761532 	0 10 	0 	0
10.0671 	0.375483 	0 10.0537 	0.300387 	0 10.0403 	0.225271 	0 10.0268 	0.150141 	0 10.0134 	0.0750008 	0 10 	0 	0
10.0364 	0.141572 	0 10.0291 	0.113304 	0 10.0218 	0.085089 	0 10.0145 	0.0569263 	0 10.0071 	0.0288164 	0 10 	0 	0
10.0137 	0.111519 	0 10.011 	0.0892152 	0 10.0082 	0.0669109 	0 10.0055 	0.0446062 	0 10.0027 	0.0223012 	0 10 	0 	0
10.0097 	0.0196536 	0 10.0078 	0.0157229 	0 10.0058 	0.0117921 	0 10.0039 	0.00786142 	0 10.0019 	0.0039307 	0 10 	0 	0
10.0102 	-0.0372873 	0 10.0082 	-0.0298299 	0 10.0061 	-0.0223724 	0 10.0041 	-0.0149149 	0 10.002 	-0.00745737 	0 10 	0 	0
10.0174 	-0.148996 	0 10.0139 	-0.119197 	0 10.0105 	-0.0893967 	0 10.007 	-0.0595953 	0 10.0035 	-0.0297932 	0 10 	0 	0
10.0362 	-0.265901 	0 10.029 	-0.212721 	0 10.0217 	-0.159534 	0 10.0145 	-0.106342 	0 10.0072 	-0.053146 	0 10 	0 	0
10.0563 	-0.387167 	0 10.045 	-0.309734 	0 10.0338 	-0.23228 	0 10.0225 	-0.15481 	0 10.0112 	-0.0773282 	0 10 	0 	0
8.30133 	-0.114495 	0 8.4287 	-0.091596 	0 8.55659 	-0.0686962 	0 8.68498 	-0.0457957 	0 8.81385 	-0.0228949 	0 8.94315 	0 	0
9.72339 	0.381311 	0 9.5415 	0.555241 	0 9.39671 	0.663651 	0 9.26203 	0.754271 	0 9.2183 	0.780385 	0 8.95344 	1.27614 	0 8.70578 	1.91036 	0 8.48173 	2.72184 	0 8.46724 	2.67123 	0 8.47252 	2.45986 	0 8.50117 	2.35314 	0 8.52498 	2.2443 	0 8.51221 	2.16311 	0 8.42487 	2.14738 	0 8.30214 	2.12559 	0 8.30117 	1.9821 	0 8.28715 	1.83798 	0 8.21181 	1.72569 	0 8.035 	1.67507 	0 7.86306 	1.62575 	0 7.68323 	1.56759 	0 7.50177 	1.50875 	0 7.42793 	1.45839 	0 7.36148 	1.40771 	0 7.27865 	1.34671 	0 7.22249 	1.32376 	0 7.16614 	1.3007 	0 7.10958 	1.27753 	0 7.07928 	1.2544 	0 7.05291 	1.23121 	0 6.97394 	1.13838 	0 6.88841 	1.05226 	0 6.79883 	0.980329 	0 6.71191 	0.932083 	0 6.6228 	0.883659 	0 6.55089 	0.833775 	0 6.49228 	0.787588 	0 6.44246 	0.743857 	0 6.3887 	0.699092 	0 6.31694 	0.642267 	0 6.31476 	0.640173 	0 6.3132 	0.638348 	0 6.31172 	0.636562 	0 6.31022 	0.634773 	0 6.30868 	0.632934 	0 6.27131 	0.597064 	0 6.2315 	0.560866 	0 6.18921 	0.524335 	0 6.1444 	0.487466 	0 6.10942 	0.456256 	0 6.07601 	0.420974 	0 6.0457 	0.390999 	0 6.017 	0.364555 	0 5.99442 	0.339605 	0 5.97315 	0.315202 	0 5.95245 	0.289068 	0 5.92971 	0.262725 	0 5.91347 	0.241665 	0 5.90338 	0.222661 	0 5.89181 	0.203595 	0 5.87916 	0.183528 	0 5.86497 	0.163362 	0 5.85625 	0.143798 	0 5.85335 	0.12741 	0 5.84918 	0.110996 	0 5.84295 	0.0943614 	0 5.83548 	0.0776856 	0 5.83339 	0.0589838 	0 5.83629 	0.0431108 	0 5.83798 	0.0272383 	0 5.83715 	0.0119413 	0 5.83532 	-0.00342511 	0 5.83918 	-0.0225254 	0 5.84729 	-0.040016 	0 5.85422 	-0.0574523 	0 5.85858 	-0.0735184 	0 5.86181 	-0.0895586 	0 5.87118 	-0.110946 	0 5.88464 	-0.132482 	0 5.89661 	-0.153948 	0 5.90646 	-0.173313 	0 5.91503 	-0.192609 	0 5.92935 	-0.218068 	0 5.94823 	-0.247022 	0 5.96522 	-0.275836 	0 5.98116 	-0.302067 	0 5.99545 	-0.328148 	0 6.01449 	-0.359762 	0 6.03859 	-0.400924 	0 6.06019 	-0.441842 	0 6.08253 	-0.480304 	0 6.10472 	-0.520921 	0 6.13002 	-0.567575 	0 6.1545 	-0.61965 	0 6.17863 	-0.679457 	0 6.206 	-0.738443 	0 6.23734 	-0.811831 	0 6.26481 	-0.884682 	0 6.28846 	-0.956995 	0 6.30857 	-1.02971 	0 6.30859 	-1.02979 	0 6.30861 	-1.02988 	0 6.30864 	-1.02998 	0 6.30867 	-1.03008 	0 6.30869 	-1.03018 	0 6.33246 	-1.12732 	0 6.35098 	-1.22236 	0 6.36438 	-1.31533 	0 6.37513 	-1.41399 	0 6.3884 	-1.53814 	0 6.4062 	-1.66387 	0 6.41774 	-1.78752 	0 6.40563 	-1.93001 	2.61943e-20 6.36924 	-2.07897 	5.36971e-20 6.31909 	-2.23373 	8.11985e-20 6.31087 	-2.28423 	2.32983e-20 6.29868 	-2.3316 	5.73766e-21 6.2823 	-2.37565 	3.11887e-20 6.26537 	-2.41945 	5.72611e-20 6.25101 	-2.45516 	7.91549e-20 6.22463 	-2.55097 	1.78886e-19 6.1963 	-2.64622 	2.82775e-19 6.16603 	-2.74089 	3.90795e-19 6.11989 	-2.82199 	2.74205e-19 6.06337 	-2.90229 	6.24607e-20 5.98341 	-3.02194 	4.92428e-20 5.89826 	-3.13864 	3.61656e-20 5.8014 	-3.23648 	8.54823e-21 5.70013 	-3.33238 	-1.80695e-20 5.62509 	-3.39905 	-3.62412e-20 5.61598 	-3.40832 	-3.60339e-20 5.60683 	-3.41758 	-3.58119e-20 5.59761 	-3.42619 	-3.69584e-20 5.58826 	-3.43312 	-4.17477e-20 5.57877 	-3.44012 	-4.65823e-20 5.45888 	-3.53632 	-2.83144e-20 5.33368 	-3.63057 	-9.47358e-21 5.20764 	-3.70753 	1.13932e-22 5.08142 	-3.7664 	-2.1317e-22 4.93226 	-3.83181 	6.21583e-23 4.93205 	-3.83192 	3.55701e-23 4.93184 	-3.83204 	8.98153e-24 4.93164 	-3.83212 	1.57674e-23 4.93146 	-3.83219 	3.9578e-23 4.93127 	-3.83225 	6.3395e-23 4.80553 	-3.88161 	1.11664e-21 4.67569 	-3.92936 	2.47451e-21 4.54873 	-3.96587 	4.20279e-21 4.43106 	-3.98297 	6.32852e-21 4.33572 	-3.99534 	8.19968e-21 4.30543 	-4.00299 	1.33387e-20 4.27492 	-4.01057 	1.85156e-20 4.24966 	-4.01228 	9.20912e-21 4.22452 	-4.01364 	-8.25907e-22 4.19827 	-4.01499 	-1.12298e-20 4.12442 	-4.0223 	-6.36363e-20 4.04939 	-4.02909 	-1.15674e-19 3.97332 	-4.03521 	-1.65888e-19 3.90912 	-4.02967 	-1.01605e-19 3.85028 	-4.02429 	-4.30513e-20 3.77275 	-4.02644 	4.14836e-21 3.69532 	-4.0257 	4.19481e-20 3.62347 	-4.01359 	3.41534e-20 3.55054 	-4.00101 	2.66293e-20 3.46855 	-3.98653 	1.86055e-20 3.46517 	-3.98611 	1.92391e-20 3.46179 	-3.98568 	1.98728e-20 3.45841 	-3.98526 	2.05067e-20 3.45522 	-3.98453 	2.10387e-20 3.45211 	-3.98368 	2.15287e-20 3.38399 	-3.97168 	1.41201e-20 3.3138 	-3.95752 	7.41163e-21 3.2424 	-3.94267 	6.97795e-22 3.17062 	-3.9156 	6.17465e-21 3.10298 	-3.88884 	1.23582e-20 3.06092 	-3.87884 	3.4717e-20 3.01855 	-3.86746 	5.06074e-20 2.97698 	-3.84851 	2.3361e-20 2.935 	-3.82933 	-3.82851e-21 2.88983 	-3.80866 	-3.27378e-20 2.87168 	-3.80209 	-3.88531e-20 2.85344 	-3.79548 	-4.49707e-20 2.83512 	-3.78881 	-5.10906e-20 2.81689 	-3.77973 	-5.7296e-20 2.79893 	-3.77019 	-6.34197e-20 2.74554 	-3.74914 	-1.07147e-19 2.69131 	-3.72759 	-1.50994e-19 2.63651 	-3.69696 	-1.46187e-19 2.58209 	-3.65958 	-8.81785e-20 2.52957 	-3.62348 	-3.26982e-20 2.51266 	-3.61457 	2.03305e-21 2.49571 	-3.60546 	3.51627e-20 2.47986 	-3.59308 	2.99146e-20 2.46394 	-3.58065 	2.47016e-20 2.44753 	-3.56786 	1.93886e-20 2.41697 	-3.54877 	5.65299e-20 2.38616 	-3.52948 	9.35916e-20 2.35508 	-3.50999 	1.30572e-19 2.32507 	-3.48547 	1.03462e-19 2.29564 	-3.46101 	7.22899e-20 2.25873 	-3.43534 	4.24507e-20 2.22136 	-3.40934 	1.25792e-20 2.1868 	-3.3765 	-2.88113e-21 2.15201 	-3.34332 	-1.80809e-20 2.1149 	-3.30801 	-3.41796e-20 2.11117 	-3.30514 	-3.17458e-20 2.10744 	-3.30226 	-2.93148e-20 2.10371 	-3.29939 	-2.68866e-20 2.10019 	-3.29594 	-3.39676e-20 2.09669 	-3.29249 	-4.1347e-20 2.05997 	-3.26022 	-1.6473e-19 2.02424 	-3.22589 	-2.56717e-19 1.98918 	-3.18978 	-2.99662e-19 1.95695 	-3.1489 	-1.93323e-19 1.92519 	-3.10868 	-8.89871e-20 1.91659 	-3.09901 	-7.79037e-20 1.90797 	-3.08932 	-6.68159e-20 1.90064 	-3.07848 	-5.65517e-20 1.8936 	-3.06739 	-4.64779e-20 1.88652 	-3.0562 	-3.63284e-20 1.86458 	-3.03082 	-1.1781e-20 1.84253 	-3.00533 	1.27878e-20 1.82093 	-2.97917 	2.9974e-20 1.80189 	-2.95019 	1.21346e-20 1.78299 	-2.92144 	-5.54094e-21 1.7696 	-2.90248 	-2.11554e-20 1.75618 	-2.8835 	-3.6758e-20 1.74494 	-2.86322 	-1.81224e-20 1.73464 	-2.84242 	1.47039e-20 1.72434 	-2.82159 	4.76373e-20 1.71201 	-2.80439 	1.21325e-20 1.69965 	-2.78718 	-2.33219e-20 1.68794 	-2.76949 	-3.4949e-20 1.67785 	-2.75063 	1.29434e-20 1.66781 	-2.73184 	6.07042e-20 1.65448 	-2.70764 	1.97486e-19 1.64117 	-2.68346 	3.34206e-19 1.63025 	-2.65852 	2.96362e-19 1.62109 	-2.63308 	1.33617e-19 1.61217 	-2.60805 	-2.78226e-20 1.60437 	-2.59469 	-5.73658e-20 1.59657 	-2.58134 	-8.6917e-20 1.58958 	-2.56764 	-8.97701e-20 1.5837 	-2.55349 	-5.62752e-20 1.57784 	-2.53933 	-2.27538e-20 1.56784 	-2.51481 	-2.46143e-20 1.55796 	-2.49038 	-2.65145e-20 1.55001 	-2.46583 	-1.93128e-20 1.54457 	-2.44114 	-4.76114e-22 1.5395 	-2.41732 	1.77797e-20 1.53286 	-2.40284 	2.9747e-20 1.52624 	-2.38839 	4.17095e-20 1.52093 	-2.37371 	4.57422e-20 1.51658 	-2.35889 	4.41208e-20 1.51226 	-2.34403 	4.24695e-20 1.50702 	-2.32428 	2.55825e-20 1.50191 	-2.30465 	8.66984e-21 1.49787 	-2.28523 	-3.12706e-21 1.49652 	-2.26617 	-1.11399e-21 1.49541 	-2.248 	8.19872e-22 1.48845 	-2.2275 	7.61992e-20 1.48159 	-2.20709 	1.51805e-19 1.47733 	-2.18685 	1.25712e-19 1.47399 	-2.16676 	6.77684e-20 1.47077 	-2.14649 	8.99949e-21 1.46957 	-2.13593 	-2.34133e-20 1.46842 	-2.12542 	-5.57823e-20 1.46753 	-2.11509 	-8.21307e-20 1.46906 	-2.10618 	-3.65478e-20 1.47063 	-2.0976 	7.88408e-21 1.4635 	-2.06739 	4.60704e-21 1.45667 	-2.03745 	1.31223e-21 1.45591 	-2.01088 	-2.34976e-20 1.45647 	-1.98517 	-5.17765e-20 1.45906 	-1.96219 	-7.49512e-20 1.45859 	-1.96026 	-6.86924e-20 1.45813 	-1.95832 	-6.2485e-20 1.45808 	-1.95659 	-6.71712e-20 1.45803 	-1.95486 	-7.1855e-20 1.45799 	-1.95312 	-7.6549e-20 1.4561 	-1.92817 	-2.09728e-19 1.4546 	-1.90352 	-3.42172e-19 1.45382 	-1.87945 	-4.46952e-19 1.45808 	-1.8592 	-1.91327e-19 1.46245 	-1.84082 	4.71462e-20 1.4603 	-1.82594 	1.11102e-19 1.45828 	-1.81116 	1.74861e-19 1.45919 	-1.7985 	1.42217e-19 1.46024 	-1.78595 	1.09673e-19 1.46144 	-1.77314 	7.63139e-20 1.46237 	-1.76355 	6.73632e-20 1.46338 	-1.75402 	5.84346e-20 1.46447 	-1.74456 	4.95284e-20 1.46709 	-1.73636 	5.16086e-20 1.46976 	-1.72857 	5.41301e-20 1.46925 	-1.70531 	2.94383e-20 1.46909 	-1.68233 	4.68458e-21 1.47201 	-1.66177 	2.02994e-20 1.4766 	-1.64229 	4.53872e-20 1.48254 	-1.62518 	6.86189e-20 1.48253 	-1.62114 	6.75099e-20 1.48261 	-1.61718 	6.76718e-20 1.48319 	-1.61359 	7.51677e-20 1.48379 	-1.61001 	8.26617e-20 1.48441 	-1.60639 	9.02424e-20 1.48712 	-1.59062 	1.39717e-19 1.4901 	-1.57505 	1.89069e-19 1.49335 	-1.55968 	2.38295e-19 1.49854 	-1.54615 	1.68545e-19 1.50396 	-1.53395 	8.21131e-20 1.50562 	-1.51449 	1.55342e-19 1.50812 	-1.49575 	2.03367e-19 1.51273 	-1.47896 	1.61583e-19 1.51769 	-1.46242 	1.20329e-19 1.52339 	-1.44496 	7.66184e-20 1.52342 	-1.44486 	7.62733e-20 1.52345 	-1.44477 	7.59283e-20 1.52349 	-1.44468 	7.55833e-20 1.52353 	-1.44459 	7.60421e-20 1.52357 	-1.44451 	7.68525e-20 1.52796 	-1.42747 	1.27004e-19 1.53277 	-1.41072 	1.75051e-19 1.53796 	-1.39423 	2.22706e-19 1.54473 	-1.37952 	1.84325e-19 1.55183 	-1.36659 	1.17196e-19 1.55517 	-1.34898 	2.03225e-19 1.55939 	-1.33227 	2.39153e-19 1.56504 	-1.31713 	1.74407e-19 1.57103 	-1.30222 	1.09876e-19 1.57737 	-1.28867 	3.78691e-20 1.57759 	-1.28771 	3.76258e-20 1.57785 	-1.2868 	3.68236e-20 1.57816 	-1.28595 	3.53163e-20 1.57847 	-1.28509 	3.38087e-20 1.57879 	-1.28424 	3.22927e-20 1.58402 	-1.27025 	-1.33204e-20 1.58955 	-1.25647 	-5.88541e-20 1.59538 	-1.24289 	-1.04306e-19 1.6021 	-1.23051 	-8.93598e-20 1.60918 	-1.21976 	-2.99358e-20 1.61363 	-1.20424 	-7.53218e-20 1.6184 	-1.18892 	-1.21121e-19 1.62448 	-1.17555 	-1.03452e-19 1.63177 	-1.16288 	-6.0935e-20 1.6398 	-1.1515 	3.3015e-22 1.64208 	-1.14471 	2.86478e-20 1.64468 	-1.13841 	2.81372e-20 1.64753 	-1.13248 	7.08554e-21 1.65044 	-1.1266 	-1.39158e-20 1.65356 	-1.12046 	-3.5908e-20 1.65722 	-1.11359 	-6.79827e-20 1.66096 	-1.10678 	-9.99446e-20 1.6648 	-1.10003 	-1.31793e-19 1.66886 	-1.09371 	-1.31338e-19 1.67312 	-1.08821 	-7.98825e-20 1.67827 	-1.07447 	-1.1192e-19 1.68429 	-1.0612 	-1.36278e-19 1.69163 	-1.0488 	-1.45636e-19 1.69982 	-1.03819 	-1.35306e-19 1.70791 	-1.02822 	-1.25317e-19 1.71369 	-1.01471 	-2.7562e-19 1.71997 	-1.00202 	-3.49678e-19 1.72685 	-0.990583 	-2.9561e-19 1.73401 	-0.979302 	-2.42049e-19 1.7423 	-0.969219 	-1.16109e-19 1.74438 	-0.964917 	-8.28572e-20 1.74661 	-0.961062 	-8.50586e-20 1.74891 	-0.95734 	-9.68272e-20 1.75123 	-0.953635 	-1.08549e-19 1.75367 	-0.949789 	-1.20721e-19 1.75856 	-0.942398 	-1.24347e-19 1.76357 	-0.935075 	-1.27944e-19 1.76869 	-0.92782 	-1.31514e-19 1.77395 	-0.920855 	-1.29693e-19 1.77932 	-0.915064 	-1.052e-19 1.78537 	-0.903132 	-1.32811e-19 1.79242 	-0.89177 	-1.44894e-19 1.80036 	-0.880916 	-1.43666e-19 1.80868 	-0.871854 	-1.02936e-19 1.81697 	-0.863322 	-6.09101e-20 1.82359 	-0.851631 	-1.64871e-19 1.83047 	-0.840111 	-2.66464e-19 1.83763 	-0.830418 	-2.25153e-19 1.84584 	-0.821307 	-1.27945e-19 1.85453 	-0.812861 	4.4839e-23 1.86112 	-0.80234 	1.4278e-22 1.86788 	-0.793446 	1.0827e-22 1.87483 	-0.784694 	6.97712e-23 1.88197 	-0.776042 	3.08461e-23 1.89031 	-0.766307 	-1.39418e-23 1.89072 	-0.765861 	7.62335e-22 1.89112 	-0.765415 	1.53807e-21 1.89153 	-0.76497 	2.31325e-21 1.89194 	-0.764524 	3.0879e-21 1.89233 	-0.764167 	4.5454e-22 1.89981 	-0.754708 	-2.55026e-20 1.90761 	-0.745424 	-4.73699e-20 1.91562 	-0.736252 	-6.90587e-20 1.92386 	-0.727208 	-8.98553e-20 1.93177 	-0.72022 	-3.11706e-20 1.93866 	-0.710264 	-2.11003e-20 1.94623 	-0.700744 	-1.38708e-20 1.95461 	-0.69176 	-1.03582e-20 1.96278 	-0.684493 	-1.59572e-20 1.97092 	-0.677625 	-2.24228e-20 1.97824 	-0.667918 	5.39692e-20 1.98578 	-0.658314 	1.30474e-19 1.9932 	-0.650228 	1.3236e-19 2.00152 	-0.643282 	6.57228e-20 2.00986 	-0.636539 	1.62814e-22 2.01757 	-0.627087 	9.66681e-23 2.0251 	-0.618715 	-1.12334e-20 2.03253 	-0.611174 	-3.10786e-20 2.04013 	-0.603712 	-5.09001e-20 2.0486 	-0.59707 	-6.39557e-20 2.05548 	-0.589395 	-1.06362e-19 2.06199 	-0.582909 	-1.09906e-19 2.06863 	-0.57648 	-1.13508e-19 2.0754 	-0.570107 	-1.17169e-19 2.08334 	-0.562856 	-1.21439e-19 2.08413 	-0.562166 	-1.22667e-19 2.08492 	-0.561476 	-1.23895e-19 2.08571 	-0.560787 	-1.25122e-19 2.08651 	-0.560099 	-1.26349e-19 2.08723 	-0.55954 	-1.2219e-19 2.09469 	-0.552237 	-9.42613e-20 2.10239 	-0.54508 	-6.50186e-20 2.11026 	-0.537992 	-3.58137e-20 2.1183 	-0.530972 	-6.64696e-21 2.12557 	-0.525486 	1.79203e-22 2.13273 	-0.517721 	6.74867e-20 2.14055 	-0.510737 	8.65442e-20 2.14856 	-0.503845 	1.03681e-19 2.15622 	-0.497772 	8.42934e-20 2.16323 	-0.492854 	1.48658e-20 2.17062 	-0.485332 	-5.5074e-20 2.17823 	-0.477956 	-1.18912e-19 2.1863 	-0.471319 	-1.35001e-19 2.19321 	-0.466455 	-6.72702e-20 2.20019 	-0.461674 	-7.23293e-23 2.20778 	-0.454394 	-3.94303e-23 2.21554 	-0.447173 	-6.7036e-24 2.22266 	-0.441311 	0 2.2295 	-0.436594 	0 2.23641 	-0.431951 	0 2.24416 	-0.424913 	0 2.25183 	-0.418198 	0 2.25833 	-0.412963 	0 2.26503 	-0.408187 	-1.01174e-20 2.27183 	-0.403682 	-2.51398e-20 2.27972 	-0.396884 	-6.20458e-21 2.28663 	-0.391249 	-6.36745e-21 2.29313 	-0.386199 	-1.58332e-20 2.29975 	-0.381213 	-2.66975e-20 2.30642 	-0.376846 	-6.644e-20 2.31413 	-0.370535 	-2.85044e-20 2.32048 	-0.365635 	-3.02933e-20 2.32695 	-0.360767 	-3.20541e-20 2.33353 	-0.355933 	-3.37869e-20 2.34013 	-0.351415 	-4.64571e-20 2.34635 	-0.34657 	-3.6935e-20 2.35194 	-0.342368 	-3.83805e-20 2.35763 	-0.338192 	-3.98048e-20 2.3634 	-0.334039 	-4.12078e-20 2.37022 	-0.329237 	-4.2815e-20 2.37077 	-0.328867 	-4.26919e-20 2.37131 	-0.328497 	-4.25689e-20 2.37185 	-0.328127 	-4.24461e-20 2.3724 	-0.327757 	-4.23235e-20 2.37288 	-0.327443 	-4.25083e-20 2.37904 	-0.322853 	-4.92835e-20 2.3853 	-0.318318 	-5.38314e-20 2.39168 	-0.31381 	-5.83023e-20 2.39816 	-0.30933 	-6.26968e-20 2.40379 	-0.305605 	-3.89554e-20 2.41012 	-0.300889 	-7.52188e-20 2.41628 	-0.296529 	-8.7351e-20 2.42255 	-0.292195 	-9.94244e-20 2.42893 	-0.287886 	-1.11439e-19 2.43356 	-0.284901 	-7.12856e-20 2.44014 	-0.280116 	-1.18625e-19 2.44618 	-0.27593 	-1.21151e-19 2.45232 	-0.271767 	-1.23631e-19 2.45821 	-0.267864 	-1.18992e-19 2.46218 	-0.2653 	-7.53368e-20 2.46879 	-0.260684 	-1.17866e-19 2.47496 	-0.256479 	-1.28059e-19 2.48096 	-0.252484 	-1.22453e-19 2.4859 	-0.249224 	-9.48008e-20 2.48963 	-0.246766 	-4.31993e-20 2.49622 	-0.242353 	4.31579e-20 2.50261 	-0.238133 	1.03938e-19 2.50845 	-0.234305 	1.09433e-19 2.51242 	-0.231617 	5.03767e-20 2.51591 	-0.229262 	-2.66891e-20 2.52245 	-0.225049 	-1.75859e-20 2.5291 	-0.220854 	-8.49248e-21 2.53461 	-0.217271 	8.66911e-21 2.53779 	-0.215004 	2.59574e-20 2.54102 	-0.21275 	4.32206e-20 2.5475 	-0.208732 	-4.33235e-20 2.55408 	-0.204731 	-1.2988e-19 2.55907 	-0.201511 	-1.41232e-19 2.56199 	-0.199344 	-7.10704e-20 2.56496 	-0.197189 	-1.00792e-21 2.57136 	-0.193362 	-9.4617e-23 2.57787 	-0.189551 	7.97896e-22 2.58237 	-0.186666 	-1.56587e-20 2.58503 	-0.184598 	-4.94055e-20 2.58773 	-0.18254 	-8.31273e-20 2.59405 	-0.1789 	-4.7672e-20 2.60046 	-0.175274 	-1.22324e-20 2.60453 	-0.172698 	-8.54666e-21 2.60692 	-0.170726 	-2.59302e-20 2.60935 	-0.168762 	-4.3298e-20 2.61557 	-0.165305 	-2.59875e-20 2.62187 	-0.161863 	-8.7196e-21 2.62548 	-0.159586 	-9.46379e-21 2.62767 	-0.157689 	-2.60536e-20 2.62984 	-0.155819 	-4.33789e-20 2.63595 	-0.152539 	-1.64886e-19 2.64159 	-0.149486 	-2.61733e-19 2.64504 	-0.147327 	-2.57043e-19 2.64731 	-0.145449 	-1.64747e-19 2.64921 	-0.143668 	-4.33594e-20 2.6552 	-0.140562 	-2.59814e-20 2.6602 	-0.137856 	-8.62107e-21 2.66348 	-0.135813 	8.70887e-21 2.66584 	-0.133967 	2.13114e-20 2.66747 	-0.132274 	3.02533e-20 2.67334 	-0.129337 	9.13214e-20 2.67773 	-0.12694 	1.18672e-19 2.68085 	-0.125009 	1.16999e-19 2.68329 	-0.123206 	9.2113e-20 2.68466 	-0.1216 	3.16768e-20 2.6904 	-0.118826 	2.32348e-20 2.69421 	-0.116705 	1.4809e-20 2.69715 	-0.114881 	6.38821e-21 2.69968 	-0.113133 	0 2.7008 	-0.111611 	0 2.70641 	-0.108995 	0 2.70966 	-0.107118 	1.4724e-20 2.71244 	-0.105399 	3.25542e-20 2.71506 	-0.103711 	5.03693e-20 2.71593 	-0.102271 	6.81111e-20 2.7214 	-0.0998088 	1.90107e-19 2.72412 	-0.098147 	1.93596e-19 2.72673 	-0.0965293 	1.9107e-19 2.72939 	-0.0949147 	1.88593e-19 2.73007 	-0.093548 	7.02171e-20 2.7352 	-0.0912859 	5.3203e-20 2.73762 	-0.0897628 	3.62419e-20 2.74007 	-0.0882425 	1.92727e-20 2.74257 	-0.086725 	2.29536e-21 2.74325 	-0.0854097 	1.46962e-20 2.74794 	-0.0833643 	-4.34646e-24 2.75019 	-0.0819355 	-2.98922e-23 2.75249 	-0.0805091 	-5.54278e-23 2.75483 	-0.079085 	-8.09532e-23 2.75551 	-0.0778253 	6.38828e-21 2.75978 	-0.0759749 	-5.08001e-20 2.76188 	-0.0746368 	-4.95012e-20 2.76402 	-0.0733006 	-4.82299e-20 2.7662 	-0.0719666 	-4.69859e-20 2.76689 	-0.0707656 	-5.64307e-21 2.77076 	-0.0690906 	8.55985e-23 2.77272 	-0.0678395 	6.04922e-23 2.77471 	-0.0665901 	3.53762e-23 2.77674 	-0.0653425 	1.02505e-23 2.77742 	-0.0642022 	0 2.78093 	-0.0626852 	1.11924e-20 2.78274 	-0.0615175 	3.75156e-20 2.78459 	-0.0603513 	6.38301e-20 2.78647 	-0.0591867 	9.01359e-20 2.78714 	-0.0581083 	1.07499e-19 2.79031 	-0.0567335 	1.73093e-19 2.79198 	-0.0556457 	1.72014e-19 2.79369 	-0.0545592 	1.70964e-19 2.79543 	-0.0534739 	1.69942e-19 2.79609 	-0.0524579 	1.02489e-19 2.79894 	-0.0512113 	8.75818e-20 2.80049 	-0.0501998 	5.31483e-20 2.80206 	-0.0491895 	1.87094e-20 2.80366 	-0.0481802 	-1.57349e-20 2.8043 	-0.0472263 	-4.66896e-20 2.80687 	-0.0460954 	-9.02036e-20 2.80829 	-0.0451568 	-8.89958e-20 2.80973 	-0.0442191 	-8.78218e-20 2.8112 	-0.0432824 	-8.66815e-20 2.81181 	-0.0423899 	-3.7051e-20 2.81413 	-0.0413635 	-4.95317e-20 2.81542 	-0.0404943 	-3.17111e-20 2.81675 	-0.0396259 	-1.39083e-20 2.81809 	-0.0387583 	3.8766e-21 2.81867 	-0.0379261 	4.31038e-20 2.82075 	-0.0369942 	4.98641e-20 2.82193 	-0.036191 	6.73351e-20 2.82314 	-0.0353885 	8.47978e-20 2.82437 	-0.0345866 	1.02252e-19 2.8249 	-0.0338132 	1.22067e-19 2.82677 	-0.032967 	1.46222e-19 2.82785 	-0.0322265 	1.37e-19 2.82894 	-0.0314865 	1.27798e-19 2.83006 	-0.030747 	1.18618e-19 2.83055 	-0.0300304 	8.16894e-20 2.83223 	-0.0292621 	5.80652e-20 2.83321 	-0.028581 	3.23171e-20 2.8342 	-0.0279002 	6.56718e-21 2.83521 	-0.0272199 	-1.91846e-20 2.83565 	-0.0265582 	-4.10469e-20 2.83717 	-0.0258607 	-5.61545e-20 2.83804 	-0.0252357 	-3.83803e-20 2.83894 	-0.024611 	-2.06322e-20 2.83985 	-0.0239866 	-2.91015e-21 2.84023 	-0.0233775 	4.84806e-20 2.84161 	-0.0227446 	1.02299e-19 2.84239 	-0.0221725 	1.09979e-19 2.84319 	-0.0216007 	1.17702e-19 2.84401 	-0.0210292 	1.25469e-19 2.84433 	-0.0204704 	8.86198e-20 2.84558 	-0.0198964 	7.18011e-20 2.84628 	-0.0193743 	6.32575e-20 2.847 	-0.0188523 	5.47098e-20 2.84773 	-0.0183306 	4.61579e-20 2.84798 	-0.0178195 	3.76087e-20 2.84913 	-0.0172995 	1.44251e-20 2.84975 	-0.0168243 	1.47732e-20 2.85039 	-0.0163492 	1.50987e-20 2.85104 	-0.0158743 	1.54016e-20 2.85122 	-0.0154084 	4.14753e-20 2.85