# Region type : patch OUTLET
# Faces  :    30
# Area   :    9.000001e-07
# Time        	areaAverage(N02)
1.2           	2.005799e+02
