# N01  FACE_DATA 30
#  x  y  z  N01
0.03453 0.0010868 -0.0005 1013.17
0.03453 0.0011168 -0.0005 2300.89
0.03453 0.0011468 -0.0005 2435.82
0.03453 0.0011768 -0.0005 2189.88
0.03453 0.0012068 -0.0005 1933.81
0.03453 0.0012368 -0.0005 1748.87
0.03453 0.0012668 -0.0005 1626.08
0.03453 0.0012968 -0.0005 1543.03
0.03453 0.0013268 -0.0005 1483.14
0.03453 0.0013568 -0.0005 1436.94
0.03453 0.0013868 -0.0005 1399.43
0.03453 0.0014168 -0.0005 1368
0.03453 0.0014468 -0.0005 1341.17
0.03453 0.0014768 -0.0005 1317.98
0.03453 0.0015068 -0.0005 1297.79
0.03453 0.0015368 -0.0005 1280.13
0.03453 0.0015668 -0.0005 1264.68
0.03453 0.0015968 -0.0005 1251.05
0.03453 0.0016268 -0.0005 1238.88
0.03453 0.0016568 -0.0005 1227.98
0.03453 0.0016868 -0.0005 1218.23
0.03453 0.0017168 -0.0005 1209.59
0.03453 0.0017468 -0.0005 1202.19
0.03453 0.0017768 -0.0005 1196.4
0.03453 0.0018068 -0.0005 1193.24
0.03453 0.0018368 -0.0005 1195.18
0.03453 0.0018668 -0.0005 1208.51
0.03453 0.0018968 -0.0005 1250.03
0.03453 0.0019268 -0.0005 1365.13
0.03453 0.0019568 -0.0005 1667.22
