# N02  FACE_DATA 30
#  x  y  z  N02
0.03453 0.0010868 -0.0005 1669.33
0.03453 0.0011168 -0.0005 3832.78
0.03453 0.0011468 -0.0005 4077.57
0.03453 0.0011768 -0.0005 3675.86
0.03453 0.0012068 -0.0005 3254.1
0.03453 0.0012368 -0.0005 2947.8
0.03453 0.0012668 -0.0005 2740.56
0.03453 0.0012968 -0.0005 2595.59
0.03453 0.0013268 -0.0005 2487.22
0.03453 0.0013568 -0.0005 2401.23
0.03453 0.0013868 -0.0005 2330.05
0.03453 0.0014168 -0.0005 2269.48
0.03453 0.0014468 -0.0005 2217.01
0.03453 0.0014768 -0.0005 2170.92
0.03453 0.0015068 -0.0005 2130.03
0.03453 0.0015368 -0.0005 2093.46
0.03453 0.0015668 -0.0005 2060.53
0.03453 0.0015968 -0.0005 2030.62
0.03453 0.0016268 -0.0005 2003.28
0.03453 0.0016568 -0.0005 1978.17
0.03453 0.0016868 -0.0005 1955.12
0.03453 0.0017168 -0.0005 1934.07
0.03453 0.0017468 -0.0005 1915.22
0.03453 0.0017768 -0.0005 1899.2
0.03453 0.0018068 -0.0005 1887.55
0.03453 0.0018368 -0.0005 1883.94
0.03453 0.0018668 -0.0005 1897.39
0.03453 0.0018968 -0.0005 1951.18
0.03453 0.0019268 -0.0005 2107.25
0.03453 0.0019568 -0.0005 2523.44
