# N03  FACE_DATA 30
#  x  y  z  N03
0.03453 0.0010868 -0.0005 1638.37
0.03453 0.0011168 -0.0005 3796.57
0.03453 0.0011468 -0.0005 4083.88
0.03453 0.0011768 -0.0005 3721.52
0.03453 0.0012068 -0.0005 3323.15
0.03453 0.0012368 -0.0005 3027.49
0.03453 0.0012668 -0.0005 2822.8
0.03453 0.0012968 -0.0005 2676.05
0.03453 0.0013268 -0.0005 2563.91
0.03453 0.0013568 -0.0005 2473.32
0.03453 0.0013868 -0.0005 2397.27
0.03453 0.0014168 -0.0005 2331.83
0.03453 0.0014468 -0.0005 2274.61
0.03453 0.0014768 -0.0005 2224
0.03453 0.0015068 -0.0005 2178.82
0.03453 0.0015368 -0.0005 2138.18
0.03453 0.0015668 -0.0005 2101.37
0.03453 0.0015968 -0.0005 2067.82
0.03453 0.0016268 -0.0005 2037.08
0.03453 0.0016568 -0.0005 2008.83
0.03453 0.0016868 -0.0005 1982.84
0.03453 0.0017168 -0.0005 1959.05
0.03453 0.0017468 -0.0005 1937.62
0.03453 0.0017768 -0.0005 1919.12
0.03453 0.0018068 -0.0005 1904.96
0.03453 0.0018368 -0.0005 1898.54
0.03453 0.0018668 -0.0005 1908.12
0.03453 0.0018968 -0.0005 1954.97
0.03453 0.0019268 -0.0005 2094.87
0.03453 0.0019568 -0.0005 2466.44
