# N04  FACE_DATA 30
#  x  y  z  N04
0.03453 0.0010868 -0.0005 1412.96
0.03453 0.0011168 -0.0005 3303.73
0.03453 0.0011468 -0.0005 3621.96
0.03453 0.0011768 -0.0005 3366.55
0.03453 0.0012068 -0.0005 3052.76
0.03453 0.0012368 -0.0005 2810.4
0.03453 0.0012668 -0.0005 2638
0.03453 0.0012968 -0.0005 2511.74
0.03453 0.0013268 -0.0005 2413.63
0.03453 0.0013568 -0.0005 2333.37
0.03453 0.0013868 -0.0005 2265.36
0.03453 0.0014168 -0.0005 2206.43
0.03453 0.0014468 -0.0005 2154.63
0.03453 0.0014768 -0.0005 2108.63
0.03453 0.0015068 -0.0005 2067.44
0.03453 0.0015368 -0.0005 2030.28
0.03453 0.0015668 -0.0005 1996.55
0.03453 0.0015968 -0.0005 1965.75
0.03453 0.0016268 -0.0005 1937.51
0.03453 0.0016568 -0.0005 1911.52
0.03453 0.0016868 -0.0005 1887.6
0.03453 0.0017168 -0.0005 1865.67
0.03453 0.0017468 -0.0005 1845.88
0.03453 0.0017768 -0.0005 1828.68
0.03453 0.0018068 -0.0005 1815.27
0.03453 0.0018368 -0.0005 1808.51
0.03453 0.0018668 -0.0005 1815.36
0.03453 0.0018968 -0.0005 1853.64
0.03453 0.0019268 -0.0005 1969.44
0.03453 0.0019568 -0.0005 2273.65
