# N05  FACE_DATA 30
#  x  y  z  N05
0.03453 0.0010868 -0.0005 1102.73
0.03453 0.0011168 -0.0005 2604.41
0.03453 0.0011468 -0.0005 2940.88
0.03453 0.0011768 -0.0005 2817.76
0.03453 0.0012068 -0.0005 2614.13
0.03453 0.0012368 -0.0005 2444.36
0.03453 0.0012668 -0.0005 2318.66
0.03453 0.0012968 -0.0005 2224.2
0.03453 0.0013268 -0.0005 2149.46
0.03453 0.0013568 -0.0005 2087.51
0.03453 0.0013868 -0.0005 2034.48
0.03453 0.0014168 -0.0005 1988.17
0.03453 0.0014468 -0.0005 1947.21
0.03453 0.0014768 -0.0005 1910.67
0.03453 0.0015068 -0.0005 1877.81
0.03453 0.0015368 -0.0005 1848.06
0.03453 0.0015668 -0.0005 1820.97
0.03453 0.0015968 -0.0005 1796.17
0.03453 0.0016268 -0.0005 1773.38
0.03453 0.0016568 -0.0005 1752.37
0.03453 0.0016868 -0.0005 1733
0.03453 0.0017168 -0.0005 1715.22
0.03453 0.0017468 -0.0005 1699.12
0.03453 0.0017768 -0.0005 1685.08
0.03453 0.0018068 -0.0005 1674.04
0.03453 0.0018368 -0.0005 1668.25
0.03453 0.0018668 -0.0005 1673.15
0.03453 0.0018968 -0.0005 1702.64
0.03453 0.0019268 -0.0005 1792.05
0.03453 0.0019568 -0.0005 2022.72
