# N06  FACE_DATA 30
#  x  y  z  N06
0.03453 0.0010868 -0.0005 858.831
0.03453 0.0011168 -0.0005 2046.15
0.03453 0.0011468 -0.0005 2380.24
0.03453 0.0011768 -0.0005 2352.5
0.03453 0.0012068 -0.0005 2233.9
0.03453 0.0012368 -0.0005 2122.35
0.03453 0.0012668 -0.0005 2035.21
0.03453 0.0012968 -0.0005 1967.62
0.03453 0.0013268 -0.0005 1913.01
0.03453 0.0013568 -0.0005 1867.04
0.03453 0.0013868 -0.0005 1827.22
0.03453 0.0014168 -0.0005 1792.14
0.03453 0.0014468 -0.0005 1760.89
0.03453 0.0014768 -0.0005 1732.84
0.03453 0.0015068 -0.0005 1707.48
0.03453 0.0015368 -0.0005 1684.43
0.03453 0.0015668 -0.0005 1663.36
0.03453 0.0015968 -0.0005 1644
0.03453 0.0016268 -0.0005 1626.16
0.03453 0.0016568 -0.0005 1609.68
0.03453 0.0016868 -0.0005 1594.44
0.03453 0.0017168 -0.0005 1580.42
0.03453 0.0017468 -0.0005 1567.7
0.03453 0.0017768 -0.0005 1556.57
0.03453 0.0018068 -0.0005 1547.76
0.03453 0.0018368 -0.0005 1542.99
0.03453 0.0018668 -0.0005 1546.49
0.03453 0.0018968 -0.0005 1568.88
0.03453 0.0019268 -0.0005 1636.79
0.03453 0.0019568 -0.0005 1808.43
