# N07  FACE_DATA 30
#  x  y  z  N07
0.03453 0.0010868 -0.0005 657.429
0.03453 0.0011168 -0.0005 1578.77
0.03453 0.0011468 -0.0005 1896.04
0.03453 0.0011768 -0.0005 1938.51
0.03453 0.0012068 -0.0005 1887.91
0.03453 0.0012368 -0.0005 1824.9
0.03453 0.0012668 -0.0005 1770.88
0.03453 0.0012968 -0.0005 1726.92
0.03453 0.0013268 -0.0005 1690.32
0.03453 0.0013568 -0.0005 1658.86
0.03453 0.0013868 -0.0005 1631.17
0.03453 0.0014168 -0.0005 1606.47
0.03453 0.0014468 -0.0005 1584.25
0.03453 0.0014768 -0.0005 1564.13
0.03453 0.0015068 -0.0005 1545.83
0.03453 0.0015368 -0.0005 1529.08
0.03453 0.0015668 -0.0005 1513.68
0.03453 0.0015968 -0.0005 1499.48
0.03453 0.0016268 -0.0005 1486.34
0.03453 0.0016568 -0.0005 1474.15
0.03453 0.0016868 -0.0005 1462.84
0.03453 0.0017168 -0.0005 1452.41
0.03453 0.0017468 -0.0005 1442.91
0.03453 0.0017768 -0.0005 1434.57
0.03453 0.0018068 -0.0005 1427.93
0.03453 0.0018368 -0.0005 1424.28
0.03453 0.0018668 -0.0005 1426.74
0.03453 0.0018968 -0.0005 1443.09
0.03453 0.0019268 -0.0005 1492.47
0.03453 0.0019568 -0.0005 1614.02
