# N08  FACE_DATA 30
#  x  y  z  N08
0.03453 0.0010868 -0.0005 511.97
0.03453 0.0011168 -0.0005 1236.41
0.03453 0.0011468 -0.0005 1526.8
0.03453 0.0011768 -0.0005 1611.12
0.03453 0.0012068 -0.0005 1607.3
0.03453 0.0012368 -0.0005 1579.69
0.03453 0.0012668 -0.0005 1550.64
0.03453 0.0012968 -0.0005 1524.9
0.03453 0.0013268 -0.0005 1502.41
0.03453 0.0013568 -0.0005 1482.45
0.03453 0.0013868 -0.0005 1464.48
0.03453 0.0014168 -0.0005 1448.15
0.03453 0.0014468 -0.0005 1433.26
0.03453 0.0014768 -0.0005 1419.62
0.03453 0.0015068 -0.0005 1407.08
0.03453 0.0015368 -0.0005 1395.52
0.03453 0.0015668 -0.0005 1384.82
0.03453 0.0015968 -0.0005 1374.88
0.03453 0.0016268 -0.0005 1365.64
0.03453 0.0016568 -0.0005 1357.02
0.03453 0.0016868 -0.0005 1349
0.03453 0.0017168 -0.0005 1341.56
0.03453 0.0017468 -0.0005 1334.77
0.03453 0.0017768 -0.0005 1328.78
0.03453 0.0018068 -0.0005 1323.98
0.03453 0.0018368 -0.0005 1321.3
0.03453 0.0018668 -0.0005 1322.94
0.03453 0.0018968 -0.0005 1334.39
0.03453 0.0019268 -0.0005 1368.74
0.03453 0.0019568 -0.0005 1450.41
