# N09  FACE_DATA 30
#  x  y  z  N09
0.03453 0.0010868 -0.0005 399.425
0.03453 0.0011168 -0.0005 968.641
0.03453 0.0011468 -0.0005 1228.17
0.03453 0.0011768 -0.0005 1337.76
0.03453 0.0012068 -0.0005 1367.62
0.03453 0.0012368 -0.0005 1367.11
0.03453 0.0012668 -0.0005 1357.86
0.03453 0.0012968 -0.0005 1346.9
0.03453 0.0013268 -0.0005 1336.04
0.03453 0.0013568 -0.0005 1325.69
0.03453 0.0013868 -0.0005 1315.9
0.03453 0.0014168 -0.0005 1306.69
0.03453 0.0014468 -0.0005 1298.06
0.03453 0.0014768 -0.0005 1289.99
0.03453 0.0015068 -0.0005 1282.44
0.03453 0.0015368 -0.0005 1275.37
0.03453 0.0015668 -0.0005 1268.75
0.03453 0.0015968 -0.0005 1262.53
0.03453 0.0016268 -0.0005 1256.7
0.03453 0.0016568 -0.0005 1251.21
0.03453 0.0016868 -0.0005 1246.07
0.03453 0.0017168 -0.0005 1241.27
0.03453 0.0017468 -0.0005 1236.86
0.03453 0.0017768 -0.0005 1232.95
0.03453 0.0018068 -0.0005 1229.8
0.03453 0.0018368 -0.0005 1228.01
0.03453 0.0018668 -0.0005 1229.01
0.03453 0.0018968 -0.0005 1236.33
0.03453 0.0019268 -0.0005 1257.99
0.03453 0.0019568 -0.0005 1306.55
