# N10  FACE_DATA 30
#  x  y  z  N10
0.03453 0.0010868 -0.0005 317.333
0.03453 0.0011168 -0.0005 771.215
0.03453 0.0011468 -0.0005 999.051
0.03453 0.0011768 -0.0005 1120.12
0.03453 0.0012068 -0.0005 1171.89
0.03453 0.0012368 -0.0005 1190.65
0.03453 0.0012668 -0.0005 1196.1
0.03453 0.0012968 -0.0005 1196.4
0.03453 0.0013268 -0.0005 1194.58
0.03453 0.0013568 -0.0005 1191.79
0.03453 0.0013868 -0.0005 1188.51
0.03453 0.0014168 -0.0005 1185.01
0.03453 0.0014468 -0.0005 1181.44
0.03453 0.0014768 -0.0005 1177.9
0.03453 0.0015068 -0.0005 1174.42
0.03453 0.0015368 -0.0005 1171.04
0.03453 0.0015668 -0.0005 1167.78
0.03453 0.0015968 -0.0005 1164.65
0.03453 0.0016268 -0.0005 1161.64
0.03453 0.0016568 -0.0005 1158.77
0.03453 0.0016868 -0.0005 1156.03
0.03453 0.0017168 -0.0005 1153.45
0.03453 0.0017468 -0.0005 1151.04
0.03453 0.0017768 -0.0005 1148.88
0.03453 0.0018068 -0.0005 1147.12
0.03453 0.0018368 -0.0005 1146.09
0.03453 0.0018668 -0.0005 1146.58
0.03453 0.0018968 -0.0005 1150.46
0.03453 0.0019268 -0.0005 1161.63
0.03453 0.0019568 -0.0005 1183.39
