# N11  FACE_DATA 30
#  x  y  z  N11
0.03453 0.0010868 -0.0005 254.004
0.03453 0.0011168 -0.0005 617.792
0.03453 0.0011468 -0.0005 815.22
0.03453 0.0011768 -0.0005 939.826
0.03453 0.0012068 -0.0005 1006.05
0.03453 0.0012368 -0.0005 1038.92
0.03453 0.0012668 -0.0005 1055.67
0.03453 0.0012968 -0.0005 1064.88
0.03453 0.0013268 -0.0005 1070.34
0.03453 0.0013568 -0.0005 1073.72
0.03453 0.0013868 -0.0005 1075.82
0.03453 0.0014168 -0.0005 1077.07
0.03453 0.0014468 -0.0005 1077.75
0.03453 0.0014768 -0.0005 1078.02
0.03453 0.0015068 -0.0005 1078
0.03453 0.0015368 -0.0005 1077.76
0.03453 0.0015668 -0.0005 1077.38
0.03453 0.0015968 -0.0005 1076.89
0.03453 0.0016268 -0.0005 1076.32
0.03453 0.0016568 -0.0005 1075.7
0.03453 0.0016868 -0.0005 1075.05
0.03453 0.0017168 -0.0005 1074.38
0.03453 0.0017468 -0.0005 1073.71
0.03453 0.0017768 -0.0005 1073.08
0.03453 0.0018068 -0.0005 1072.53
0.03453 0.0018368 -0.0005 1072.18
0.03453 0.0018668 -0.0005 1072.25
0.03453 0.0018968 -0.0005 1073.22
0.03453 0.0019268 -0.0005 1075.49
0.03453 0.0019568 -0.0005 1074.94
