# N12  FACE_DATA 30
#  x  y  z  N12
0.03453 0.0010868 -0.0005 206.666
0.03453 0.0011168 -0.0005 502.34
0.03453 0.0011468 -0.0005 671.866
0.03453 0.0011768 -0.0005 794.127
0.03453 0.0012068 -0.0005 868.701
0.03453 0.0012368 -0.0005 911.261
0.03453 0.0012668 -0.0005 936.288
0.03453 0.0012968 -0.0005 952.252
0.03453 0.0013268 -0.0005 963.351
0.03453 0.0013568 -0.0005 971.59
0.03453 0.0013868 -0.0005 977.977
0.03453 0.0014168 -0.0005 983.065
0.03453 0.0014468 -0.0005 987.19
0.03453 0.0014768 -0.0005 990.581
0.03453 0.0015068 -0.0005 993.401
0.03453 0.0015368 -0.0005 995.769
0.03453 0.0015668 -0.0005 997.776
0.03453 0.0015968 -0.0005 999.489
0.03453 0.0016268 -0.0005 1000.96
0.03453 0.0016568 -0.0005 1002.23
0.03453 0.0016868 -0.0005 1003.34
0.03453 0.0017168 -0.0005 1004.29
0.03453 0.0017468 -0.0005 1005.1
0.03453 0.0017768 -0.0005 1005.76
0.03453 0.0018068 -0.0005 1006.26
0.03453 0.0018368 -0.0005 1006.48
0.03453 0.0018668 -0.0005 1006.21
0.03453 0.0018968 -0.0005 1004.71
0.03453 0.0019268 -0.0005 999.508
0.03453 0.0019568 -0.0005 980.638
