# N13  FACE_DATA 30
#  x  y  z  N13
0.03453 0.0010868 -0.0005 169.792
0.03453 0.0011168 -0.0005 412.041
0.03453 0.0011468 -0.0005 556.467
0.03453 0.0011768 -0.0005 673.101
0.03453 0.0012068 -0.0005 752.054
0.03453 0.0012368 -0.0005 801.283
0.03453 0.0012668 -0.0005 832.472
0.03453 0.0012968 -0.0005 853.664
0.03453 0.0013268 -0.0005 869.238
0.03453 0.0013568 -0.0005 881.401
0.03453 0.0013868 -0.0005 891.294
0.03453 0.0014168 -0.0005 899.543
0.03453 0.0014468 -0.0005 906.54
0.03453 0.0014768 -0.0005 912.548
0.03453 0.0015068 -0.0005 917.764
0.03453 0.0015368 -0.0005 922.336
0.03453 0.0015668 -0.0005 926.378
0.03453 0.0015968 -0.0005 929.976
0.03453 0.0016268 -0.0005 933.199
0.03453 0.0016568 -0.0005 936.1
0.03453 0.0016868 -0.0005 938.716
0.03453 0.0017168 -0.0005 941.069
0.03453 0.0017468 -0.0005 943.16
0.03453 0.0017768 -0.0005 944.956
0.03453 0.0018068 -0.0005 946.353
0.03453 0.0018368 -0.0005 947.095
0.03453 0.0018668 -0.0005 946.53
0.03453 0.0018968 -0.0005 942.923
0.03453 0.0019268 -0.0005 931.34
0.03453 0.0019568 -0.0005 897.151
