# N14  FACE_DATA 30
#  x  y  z  N14
0.03453 0.0010868 -0.0005 141.719
0.03453 0.0011168 -0.0005 343.053
0.03453 0.0011468 -0.0005 465.445
0.03453 0.0011768 -0.0005 574.259
0.03453 0.0012068 -0.0005 654.469
0.03453 0.0012368 -0.0005 707.857
0.03453 0.0012668 -0.0005 743.392
0.03453 0.0012968 -0.0005 768.472
0.03453 0.0013268 -0.0005 787.479
0.03453 0.0013568 -0.0005 802.715
0.03453 0.0013868 -0.0005 815.394
0.03453 0.0014168 -0.0005 826.189
0.03453 0.0014468 -0.0005 835.519
0.03453 0.0014768 -0.0005 843.672
0.03453 0.0015068 -0.0005 850.865
0.03453 0.0015368 -0.0005 857.266
0.03453 0.0015668 -0.0005 863.006
0.03453 0.0015968 -0.0005 868.184
0.03453 0.0016268 -0.0005 872.88
0.03453 0.0016568 -0.0005 877.156
0.03453 0.0016868 -0.0005 881.056
0.03453 0.0017168 -0.0005 884.601
0.03453 0.0017468 -0.0005 887.784
0.03453 0.0017768 -0.0005 890.544
0.03453 0.0018068 -0.0005 892.717
0.03453 0.0018368 -0.0005 893.9
0.03453 0.0018668 -0.0005 893.089
0.03453 0.0018968 -0.0005 887.682
0.03453 0.0019268 -0.0005 870.691
0.03453 0.0019568 -0.0005 823.818
