# N15  FACE_DATA 30
#  x  y  z  N15
0.03453 0.0010868 -0.0005 119.839
0.03453 0.0011168 -0.0005 289.164
0.03453 0.0011468 -0.0005 392.323
0.03453 0.0011768 -0.0005 492.224
0.03453 0.0012068 -0.0005 571.618
0.03453 0.0012368 -0.0005 627.384
0.03453 0.0012668 -0.0005 665.939
0.03453 0.0012968 -0.0005 693.914
0.03453 0.0013268 -0.0005 715.571
0.03453 0.0013568 -0.0005 733.237
0.03453 0.0013868 -0.0005 748.157
0.03453 0.0014168 -0.0005 761.025
0.03453 0.0014468 -0.0005 772.275
0.03453 0.0014768 -0.0005 782.209
0.03453 0.0015068 -0.0005 791.054
0.03453 0.0015368 -0.0005 798.994
0.03453 0.0015668 -0.0005 806.169
0.03453 0.0015968 -0.0005 812.689
0.03453 0.0016268 -0.0005 818.641
0.03453 0.0016568 -0.0005 824.095
0.03453 0.0016868 -0.0005 829.097
0.03453 0.0017168 -0.0005 833.668
0.03453 0.0017468 -0.0005 837.793
0.03453 0.0017768 -0.0005 841.389
0.03453 0.0018068 -0.0005 844.236
0.03453 0.0018368 -0.0005 845.804
0.03453 0.0018668 -0.0005 844.785
0.03453 0.0018968 -0.0005 837.827
0.03453 0.0019268 -0.0005 816.21
0.03453 0.0019568 -0.0005 758.739
