# N16  FACE_DATA 30
#  x  y  z  N16
0.03453 0.0010868 -0.0005 103.3
0.03453 0.0011168 -0.0005 248.33
0.03453 0.0011468 -0.0005 334.978
0.03453 0.0011768 -0.0005 425.377
0.03453 0.0012068 -0.0005 502.354
0.03453 0.0012368 -0.0005 559.029
0.03453 0.0012668 -0.0005 599.471
0.03453 0.0012968 -0.0005 629.471
0.03453 0.0013268 -0.0005 653.083
0.03453 0.0013568 -0.0005 672.598
0.03453 0.0013868 -0.0005 689.262
0.03453 0.0014168 -0.0005 703.77
0.03453 0.0014468 -0.0005 716.56
0.03453 0.0014768 -0.0005 727.935
0.03453 0.0015068 -0.0005 738.131
0.03453 0.0015368 -0.0005 747.337
0.03453 0.0015668 -0.0005 755.7
0.03453 0.0015968 -0.0005 763.337
0.03453 0.0016268 -0.0005 770.34
0.03453 0.0016568 -0.0005 776.783
0.03453 0.0016868 -0.0005 782.714
0.03453 0.0017168 -0.0005 788.154
0.03453 0.0017468 -0.0005 793.08
0.03453 0.0017768 -0.0005 797.386
0.03453 0.0018068 -0.0005 800.808
0.03453 0.0018368 -0.0005 802.704
0.03453 0.0018668 -0.0005 801.505
0.03453 0.0018968 -0.0005 793.219
0.03453 0.0019268 -0.0005 767.674
0.03453 0.0019568 -0.0005 701.451
