# N17  FACE_DATA 30
#  x  y  z  N17
0.03453 0.0010868 -0.0005 91.0352
0.03453 0.0011168 -0.0005 217.92
0.03453 0.0011468 -0.0005 290.423
0.03453 0.0011768 -0.0005 371.111
0.03453 0.0012068 -0.0005 444.537
0.03453 0.0012368 -0.0005 501.004
0.03453 0.0012668 -0.0005 542.447
0.03453 0.0012968 -0.0005 573.779
0.03453 0.0013268 -0.0005 598.784
0.03453 0.0013568 -0.0005 619.675
0.03453 0.0013868 -0.0005 637.674
0.03453 0.0014168 -0.0005 653.465
0.03453 0.0014468 -0.0005 667.476
0.03453 0.0014768 -0.0005 680.01
0.03453 0.0015068 -0.0005 691.302
0.03453 0.0015368 -0.0005 701.544
0.03453 0.0015668 -0.0005 710.887
0.03453 0.0015968 -0.0005 719.45
0.03453 0.0016268 -0.0005 727.329
0.03453 0.0016568 -0.0005 734.6
0.03453 0.0016868 -0.0005 741.313
0.03453 0.0017168 -0.0005 747.487
0.03453 0.0017468 -0.0005 753.089
0.03453 0.0017768 -0.0005 758
0.03453 0.0018068 -0.0005 761.91
0.03453 0.0018368 -0.0005 764.085
0.03453 0.0018668 -0.0005 762.729
0.03453 0.0018968 -0.0005 753.306
0.03453 0.0019268 -0.0005 724.428
0.03453 0.0019568 -0.0005 651.006
