# N18  FACE_DATA 30
#  x  y  z  N18
0.03453 0.0010868 -0.0005 83.0719
0.03453 0.0011168 -0.0005 197.904
0.03453 0.0011468 -0.0005 258.45
0.03453 0.0011768 -0.0005 329.282
0.03453 0.0012068 -0.0005 398.16
0.03453 0.0012368 -0.0005 453.409
0.03453 0.0012668 -0.0005 495.031
0.03453 0.0012968 -0.0005 527.041
0.03453 0.0013268 -0.0005 552.901
0.03453 0.0013568 -0.0005 574.711
0.03453 0.0013868 -0.0005 593.646
0.03453 0.0014168 -0.0005 610.365
0.03453 0.0014468 -0.0005 625.284
0.03453 0.0014768 -0.0005 638.694
0.03453 0.0015068 -0.0005 650.827
0.03453 0.0015368 -0.0005 661.874
0.03453 0.0015668 -0.0005 671.986
0.03453 0.0015968 -0.0005 681.282
0.03453 0.0016268 -0.0005 689.86
0.03453 0.0016568 -0.0005 697.796
0.03453 0.0016868 -0.0005 705.14
0.03453 0.0017168 -0.0005 711.908
0.03453 0.0017468 -0.0005 718.063
0.03453 0.0017768 -0.0005 723.466
0.03453 0.0018068 -0.0005 727.775
0.03453 0.0018368 -0.0005 730.175
0.03453 0.0018668 -0.0005 728.681
0.03453 0.0018968 -0.0005 718.298
0.03453 0.0019268 -0.0005 686.653
0.03453 0.0019568 -0.0005 607.494
