# N19  FACE_DATA 30
#  x  y  z  N19
0.03453 0.0010868 -0.0005 80.3143
0.03453 0.0011168 -0.0005 190.216
0.03453 0.0011468 -0.0005 240.668
0.03453 0.0011768 -0.0005 301.174
0.03453 0.0012068 -0.0005 364.371
0.03453 0.0012368 -0.0005 417.334
0.03453 0.0012668 -0.0005 458.278
0.03453 0.0012968 -0.0005 490.281
0.03453 0.0013268 -0.0005 516.428
0.03453 0.0013568 -0.0005 538.671
0.03453 0.0013868 -0.0005 558.117
0.03453 0.0014168 -0.0005 575.386
0.03453 0.0014468 -0.0005 590.873
0.03453 0.0014768 -0.0005 604.855
0.03453 0.0015068 -0.0005 617.553
0.03453 0.0015368 -0.0005 629.153
0.03453 0.0015668 -0.0005 639.803
0.03453 0.0015968 -0.0005 649.621
0.03453 0.0016268 -0.0005 658.702
0.03453 0.0016568 -0.0005 667.123
0.03453 0.0016868 -0.0005 674.932
0.03453 0.0017168 -0.0005 682.141
0.03453 0.0017468 -0.0005 688.708
0.03453 0.0017768 -0.0005 694.481
0.03453 0.0018068 -0.0005 699.088
0.03453 0.0018368 -0.0005 701.649
0.03453 0.0018668 -0.0005 700.026
0.03453 0.0018968 -0.0005 688.863
0.03453 0.0019268 -0.0005 655.034
0.03453 0.0019568 -0.0005 571.646
