# N20  FACE_DATA 30
#  x  y  z  N20
0.03453 0.0010868 -0.0005 92.0396
0.03453 0.0011168 -0.0005 216.267
0.03453 0.0011468 -0.0005 261.263
0.03453 0.0011768 -0.0005 312.386
0.03453 0.0012068 -0.0005 369.485
0.03453 0.0012368 -0.0005 419.105
0.03453 0.0012668 -0.0005 458.11
0.03453 0.0012968 -0.0005 488.833
0.03453 0.0013268 -0.0005 514.031
0.03453 0.0013568 -0.0005 535.52
0.03453 0.0013868 -0.0005 554.346
0.03453 0.0014168 -0.0005 571.1
0.03453 0.0014468 -0.0005 586.156
0.03453 0.0014768 -0.0005 599.778
0.03453 0.0015068 -0.0005 612.174
0.03453 0.0015368 -0.0005 623.517
0.03453 0.0015668 -0.0005 633.947
0.03453 0.0015968 -0.0005 643.577
0.03453 0.0016268 -0.0005 652.498
0.03453 0.0016568 -0.0005 660.782
0.03453 0.0016868 -0.0005 668.472
0.03453 0.0017168 -0.0005 675.579
0.03453 0.0017468 -0.0005 682.053
0.03453 0.0017768 -0.0005 687.735
0.03453 0.0018068 -0.0005 692.24
0.03453 0.0018368 -0.0005 694.657
0.03453 0.0018668 -0.0005 692.782
0.03453 0.0018968 -0.0005 681.112
0.03453 0.0019268 -0.0005 646.264
0.03453 0.0019568 -0.0005 561.521
