# vtk DataFile Version 2.0
track0
ASCII
DATASET POLYDATA
POINTS 12278 float
-0.0205 0.001 1e-05
-0.02052 0.000999216 1e-05
-0.02054 0.000998592 1e-05
-0.02056 0.000998126 1e-05
-0.02058 0.000997818 1e-05
-0.0206 0.000997665 1e-05
-0.0205 0.00367778 1e-05
-0.02052 0.00367703 1e-05
-0.02054 0.00367643 1e-05
-0.02056 0.00367599 1e-05
-0.02058 0.00367569 1e-05
-0.0206 0.00367554 1e-05
-0.0205 0.00635556 1e-05
-0.02052 0.00635527 1e-05
-0.02054 0.00635505 1e-05
-0.02056 0.00635488 1e-05
-0.02058 0.00635476 1e-05
-0.0206 0.00635471 1e-05
-0.0205 0.00903333 1e-05
-0.02052 0.00903311 1e-05
-0.02054 0.00903293 1e-05
-0.02056 0.0090328 1e-05
-0.02058 0.00903271 1e-05
-0.0206 0.00903266 1e-05
-0.0205 0.0117111 1e-05
-0.02052 0.0117111 1e-05
-0.02054 0.011711 1e-05
-0.02056 0.011711 1e-05
-0.02058 0.011711 1e-05
-0.0206 0.011711 1e-05
-0.0205 0.0143889 1e-05
-0.02052 0.014389 1e-05
-0.02054 0.014389 1e-05
-0.02056 0.0143891 1e-05
-0.02058 0.0143891 1e-05
-0.0206 0.0143891 1e-05
-0.0205 0.0170667 1e-05
-0.02052 0.017067 1e-05
-0.02054 0.0170672 1e-05
-0.02056 0.0170674 1e-05
-0.02058 0.0170675 1e-05
-0.0206 0.0170676 1e-05
-0.0205 0.0197444 1e-05
-0.02052 0.019745 1e-05
-0.02054 0.0197454 1e-05
-0.02056 0.0197457 1e-05
-0.02058 0.0197459 1e-05
-0.0206 0.019746 1e-05
-0.0205 0.0224222 1e-05
-0.02052 0.022423 1e-05
-0.02054 0.0224236 1e-05
-0.02056 0.0224241 1e-05
-0.02058 0.0224244 1e-05
-0.0206 0.0224245 1e-05
-0.0205 0.0251 1e-05
-0.02052 0.0251003 1e-05
-0.02054 0.0251005 1e-05
-0.02056 0.0251007 1e-05
-0.02058 0.0251008 1e-05
-0.0206 0.0251008 1e-05
-0.0205 0.001 1e-05
-0.0203632 0.00100536 1e-05
-0.0202266 0.00101331 1e-05
-0.0200901 0.00102296 1e-05
-0.0200427 0.00102682 1e-05
-0.0198376 0.00104418 1e-05
-0.0196338 0.00107322 1e-05
-0.0194327 0.00111734 1e-05
-0.0192368 0.00118024 1e-05
-0.0190172 0.00124951 1e-05
-0.0189002 0.00128348 1e-05
-0.0187827 0.00131598 1e-05
-0.0186649 0.001347 1e-05
-0.0185469 0.001377 1e-05
-0.0183807 0.00141936 1e-05
-0.0182041 0.00146458 1e-05
-0.0180267 0.00150692 1e-05
-0.0178487 0.0015464 1e-05
-0.0176703 0.00158389 1e-05
-0.0174976 0.00161991 1e-05
-0.0172846 0.00166394 1e-05
-0.0170715 0.00170741 1e-05
-0.0168583 0.00175029 1e-05
-0.0166449 0.00179219 1e-05
-0.0163945 0.00184007 1e-05
-0.0163234 0.00185324 1e-05
-0.0162522 0.00186629 1e-05
-0.016181 0.00187921 1e-05
-0.0161097 0.00189201 1e-05
-0.0160387 0.0019046 1e-05
-0.0157586 0.0019535 1e-05
-0.0154779 0.00199931 1e-05
-0.0151968 0.00204225 1e-05
-0.0149154 0.00208283 1e-05
-0.0146381 0.00212134 1e-05
-0.0143838 0.00215527 1e-05
-0.0141293 0.00218766 1e-05
-0.0138747 0.00221855 1e-05
-0.0136198 0.00224797 1e-05
-0.0132934 0.00228369 1e-05
-0.0132791 0.00228515 1e-05
-0.0132648 0.0022866 1e-05
-0.0132504 0.00228805 1e-05
-0.0132361 0.0022895 1e-05
-0.0132214 0.00229098 1e-05
-0.0129776 0.00231543 1e-05
-0.0127337 0.00233865 1e-05
-0.0124897 0.00236061 1e-05
-0.0122456 0.0023813 1e-05
-0.0120025 0.00240058 1e-05
-0.0117547 0.00241909 1e-05
-0.0115067 0.00243627 1e-05
-0.0112587 0.00245231 1e-05
-0.0110106 0.00246734 1e-05
-0.0107632 0.00248136 1e-05
-0.0105252 0.00249391 1e-05
-0.0102872 0.00250547 1e-05
-0.0100491 0.00251602 1e-05
-0.00981105 0.00252575 1e-05
-0.00957337 0.00253472 1e-05
-0.00934491 0.00254261 1e-05
-0.00911643 0.00254974 1e-05
-0.00888792 0.00255611 1e-05
-0.0086594 0.00256172 1e-05
-0.00843108 0.00256669 1e-05
-0.00821175 0.00257085 1e-05
-0.00799241 0.00257439 1e-05
-0.00777306 0.00257731 1e-05
-0.0075537 0.00257953 1e-05
-0.00733443 0.00258115 1e-05
-0.00712387 0.00258213 1e-05
-0.0069133 0.00258257 1e-05
-0.00670273 0.00258244 1e-05
-0.00649216 0.00258163 1e-05
-0.0062816 0.00258019 1e-05
-0.00607944 0.00257821 1e-05
-0.0058773 0.00257567 1e-05
-0.00567516 0.00257258 1e-05
-0.00547303 0.00256876 1e-05
-0.00527083 0.00256421 1e-05
-0.00507675 0.00255914 1e-05
-0.00488269 0.00255345 1e-05
-0.00468865 0.00254713 1e-05
-0.00449464 0.00253999 1e-05
-0.00430044 0.00253193 1e-05
-0.00411412 0.00252332 1e-05
-0.00392784 0.00251391 1e-05
-0.00374159 0.00250371 1e-05
-0.0035554 0.00249258 1e-05
-0.00336883 0.00248019 1e-05
-0.00318995 0.00246715 1e-05
-0.00301115 0.00245303 1e-05
-0.00283245 0.00243778 1e-05
-0.00265386 0.00242125 1e-05
-0.00247443 0.00240318 1e-05
-0.0023027 0.0023843 1e-05
-0.00213114 0.00236388 1e-05
-0.00195982 0.00234159 1e-05
-0.00178875 0.00231743 1e-05
-0.00161577 0.0022911 1e-05
-0.00161562 0.00229108 1e-05
-0.00161546 0.00229105 1e-05
-0.0016153 0.00229103 1e-05
-0.00161515 0.002291 1e-05
-0.00161499 0.00229098 1e-05
-0.00145028 0.00226408 1e-05
-0.00128596 0.00223483 1e-05
-0.00112208 0.00220328 1e-05
-0.000958634 0.00216951 1e-05
-0.000791418 0.00213242 1e-05
-0.000633135 0.00209431 1e-05
-0.000475556 0.00205338 1e-05
-0.000318719 0.0020097 1e-05
-0.000162834 0.00196273 1e-05
0 0.00190958 1e-05
3.73775e-05 0.00189637 1e-05
7.46548e-05 0.00188288 1e-05
0.000111833 0.00186911 1e-05
0.000148915 0.00185509 1e-05
0.000179248 0.00184338 1e-05
0.000249076 0.00181595 1e-05
0.000318493 0.0017875 1e-05
0.000387486 0.00175804 1e-05
0.000456039 0.00172757 1e-05
0.000528387 0.00169421 1e-05
0.000634886 0.00164323 1e-05
0.000740278 0.00159 1e-05
0.00084451 0.00153454 1e-05
0.000947621 0.00147702 1e-05
0.00102003 0.00143469 1e-05
0.0010282 0.00142975 1e-05
0.00103636 0.0014248 1e-05
0.00104451 0.00141983 1e-05
0.00105265 0.00141484 1e-05
0.00106088 0.00140979 1e-05
0.00116821 0.00134361 1e-05
0.00127404 0.00127505 1e-05
0.00137827 0.0012041 1e-05
0.00148099 0.00113097 1e-05
0.00159683 0.00104511 1e-05
0.00159697 0.001045 1e-05
0.00159711 0.0010449 1e-05
0.00159724 0.00104479 1e-05
0.00159738 0.00104468 1e-05
0.00159752 0.00104458 1e-05
0.00169221 0.000970987 1e-05
0.00178551 0.000895628 1e-05
0.00187733 0.00081847 1e-05
0.00196772 0.000739657 1e-05
0.00203813 0.000676368 1e-05
0.00205817 0.000657902 1e-05
0.00207813 0.000639348 1e-05
0.002098 0.000620704 1e-05
0.00211781 0.000601997 1e-05
0.00213833 0.000582509 1e-05
0.00219149 0.000531666 1e-05
0.00224415 0.000480306 1e-05
0.0022963 0.00042842 1e-05
0.00234792 0.000376003 1e-05
0.00239424 0.000328255 1e-05
0.00245206 0.000267822 1e-05
0.00250924 0.000206789 1e-05
0.0025658 0.000145174 1e-05
0.00262185 8.30922e-05 1e-05
0.00268334 1.38043e-05 1e-05
0.00268574 1.10435e-05 1e-05
0.00268814 8.28157e-06 1e-05
0.00269054 5.51863e-06 1e-05
0.00269294 2.75465e-06 1e-05
0.00269533 0 1e-05
0.00275923 -7.37368e-05 1e-05
0.0028225 -0.000148005 1e-05
0.00288514 -0.000222814 1e-05
0.00294712 -0.000298174 1e-05
0.00300419 -0.000368654 1e-05
0.00304987 -0.000425902 1e-05
0.00309524 -0.000483396 1e-05
0.0031403 -0.00054113 1e-05
0.00318511 -0.00059906 1e-05
0.00323259 -0.000660999 1e-05
0.00325066 -0.000684818 1e-05
0.00326868 -0.000708677 1e-05
0.00328665 -0.000732576 1e-05
0.00330456 -0.000756515 1e-05
0.00332213 -0.00078009 1e-05
0.00339027 -0.000871878 1e-05
0.00345781 -0.000964108 1e-05
0.00352473 -0.00105679 1e-05
0.00359111 -0.00114986 1e-05
0.00365397 -0.00123896 1e-05
0.0036804 -0.00127681 1e-05
0.00370675 -0.00131472 1e-05
0.00373302 -0.00135269 1e-05
0.00375925 -0.00139068 1e-05
0.00378611 -0.00142971 1e-05
0.00383011 -0.00149386 1e-05
0.00387391 -0.00155816 1e-05
0.00391748 -0.00162261 1e-05
0.00396082 -0.00168721 1e-05
0.004003 -0.00175044 1e-05
0.00407118 -0.00185324 1e-05
0.00413896 -0.00195632 1e-05
0.0042063 -0.00205967 1e-05
0.00427336 -0.00216321 1e-05
0.00434393 -0.00227286 1e-05
0.00435 -0.00228235 1e-05
0.00435606 -0.00229184 1e-05
0.00436212 -0.00230133 1e-05
0.00436817 -0.00231083 1e-05
0.00437421 -0.0023203 1e-05
0.00445505 -0.00244725 1e-05
0.00453544 -0.00257449 1e-05
0.00461544 -0.00270197 1e-05
0.00469508 -0.00282968 1e-05
0.00477294 -0.00295498 1e-05
0.00479957 -0.00299798 1e-05
0.00482618 -0.00304099 1e-05
0.00485275 -0.00308403 1e-05
0.00487932 -0.00312707 1e-05
0.00490609 -0.00317043 1e-05
0.00496673 -0.00326867 1e-05
0.00502722 -0.003367 1e-05
0.00508757 -0.00346543 1e-05
0.00514777 -0.00356393 1e-05
0.00520743 -0.00366161 1e-05
0.00526047 -0.00374851 1e-05
0.00531347 -0.00383544 1e-05
0.00536642 -0.0039224 1e-05
0.00541941 -0.00400934 1e-05
0.00547262 -0.00409654 1e-05
0.00551559 -0.00416686 1e-05
0.00555853 -0.00423719 1e-05
0.00560143 -0.00430755 1e-05
0.00564432 -0.00437792 1e-05
0.00568713 -0.00444811 1e-05
0.00575842 -0.00456488 1e-05
0.00582975 -0.00468162 1e-05
0.00590112 -0.00479833 1e-05
0.00597264 -0.00491495 1e-05
0.00604356 -0.00503015 1e-05
0.00607979 -0.00508877 1e-05
0.00611603 -0.00514738 1e-05
0.00615229 -0.005206 1e-05
0.00618856 -0.00526459 1e-05
0.00622494 -0.00532326 1e-05
0.00630374 -0.00545008 1e-05
0.00638273 -0.00557678 1e-05
0.00646191 -0.00570336 1e-05
0.00654137 -0.00582977 1e-05
0.00661893 -0.00595236 1e-05
0.00666279 -0.00602123 1e-05
0.0067067 -0.00609006 1e-05
0.00675066 -0.00615886 1e-05
0.00679471 -0.00622761 1e-05
0.00683913 -0.00629671 1e-05
0.00691106 -0.00640821 1e-05
0.00698325 -0.00651954 1e-05
0.00705569 -0.0066307 1e-05
0.00712842 -0.00674168 1e-05
0.00719878 -0.00684822 1e-05
0.0072694 -0.00695438 1e-05
0.00734023 -0.0070604 1e-05
0.0074113 -0.00716626 1e-05
0.00748267 -0.00727192 1e-05
0.00755557 -0.00737908 1e-05
0.00760108 -0.00744551 1e-05
0.00764672 -0.00751185 1e-05
0.00769249 -0.0075781 1e-05
0.00773839 -0.00764426 1e-05
0.00778313 -0.00770841 1e-05
0.00790091 -0.00787641 1e-05
0.00801946 -0.00804388 1e-05
0.00813878 -0.00821078 1e-05
0.0082591 -0.00837697 1e-05
0.00837203 -0.00853091 1e-05
0.00837961 -0.0085411 1e-05
0.0083872 -0.0085513 1e-05
0.00839478 -0.00856149 1e-05
0.00840238 -0.00857167 1e-05
0.00840999 -0.00858188 1e-05
0.0085211 -0.00873073 1e-05
0.00863302 -0.00887895 1e-05
0.0087458 -0.00902654 1e-05
0.00885944 -0.00917345 1e-05
0.00896551 -0.00930871 1e-05
0.00902996 -0.00938983 1e-05
0.00909466 -0.00947075 1e-05
0.00915963 -0.00955144 1e-05
0.00922491 -0.0096319 1e-05
0.00929234 -0.00971437 1e-05
0.00934659 -0.0097802 1e-05
0.00940104 -0.00984587 1e-05
0.00945569 -0.00991137 1e-05
0.00951053 -0.00997671 1e-05
0.0095636 -0.0100395 1e-05
0.00968415 -0.0101813 1e-05
[...]
POINT_DATA 12278
 FIELD attributes 1
U 3 12278 float
9.72339 	0.381311 	0 9.77871 	0.305049 	0 9.83405 	0.228765 	0 9.8894 	0.152465 	0 9.94476 	0.0761532 	0 10 	0 	0
10.0671 	0.375483 	0 10.0537 	0.300387 	0 10.0403 	0.225271 	0 10.0268 	0.150141 	0 10.0134 	0.0750008 	0 10 	0 	0
10.0364 	0.141572 	0 10.0291 	0.113304 	0 10.0218 	0.085089 	0 10.0145 	0.0569263 	0 10.0071 	0.0288164 	0 10 	0 	0
10.0137 	0.111519 	0 10.011 	0.0892151 	0 10.0082 	0.0669108 	0 10.0055 	0.0446062 	0 10.0027 	0.0223012 	0 10 	0 	0
10.0097 	0.0196535 	0 10.0078 	0.0157228 	0 10.0058 	0.0117921 	0 10.0039 	0.00786139 	0 10.0019 	0.00393068 	0 10 	0 	0
10.0102 	-0.0372874 	0 10.0082 	-0.0298299 	0 10.0061 	-0.0223724 	0 10.0041 	-0.0149149 	0 10.002 	-0.00745739 	0 10 	0 	0
10.0174 	-0.148997 	0 10.0139 	-0.119197 	0 10.0105 	-0.0893967 	0 10.007 	-0.0595953 	0 10.0035 	-0.0297932 	0 10 	0 	0
10.0362 	-0.265901 	0 10.029 	-0.212721 	0 10.0217 	-0.159534 	0 10.0145 	-0.106342 	0 10.0072 	-0.053146 	0 10 	0 	0
10.0563 	-0.387167 	0 10.045 	-0.309734 	0 10.0338 	-0.23228 	0 10.0225 	-0.15481 	0 10.0112 	-0.0773282 	0 10 	0 	0
8.30133 	-0.114495 	0 8.4287 	-0.091596 	0 8.55659 	-0.0686962 	0 8.68498 	-0.0457957 	0 8.81385 	-0.0228949 	0 8.94315 	0 	0
9.72339 	0.381311 	0 9.5415 	0.555241 	0 9.39671 	0.66365 	0 9.26203 	0.754271 	0 9.2183 	0.780385 	0 8.95344 	1.27614 	0 8.70578 	1.91036 	0 8.48173 	2.72184 	0 8.46724 	2.67123 	0 8.47252 	2.45986 	0 8.50117 	2.35314 	0 8.52498 	2.2443 	0 8.51221 	2.16311 	0 8.42487 	2.14738 	0 8.30214 	2.12559 	0 8.30117 	1.9821 	0 8.28715 	1.83798 	0 8.21181 	1.72569 	0 8.035 	1.67507 	0 7.86306 	1.62575 	0 7.68323 	1.56759 	0 7.50177 	1.50875 	0 7.42793 	1.45839 	0 7.36148 	1.40771 	0 7.27865 	1.34671 	0 7.22249 	1.32376 	0 7.16614 	1.3007 	0 7.10958 	1.27753 	0 7.07928 	1.2544 	0 7.05291 	1.23121 	0 6.97394 	1.13838 	0 6.88841 	1.05226 	0 6.79883 	0.980329 	0 6.71191 	0.932083 	0 6.6228 	0.883658 	0 6.55089 	0.833775 	0 6.49228 	0.787588 	0 6.44246 	0.743856 	0 6.3887 	0.699091 	0 6.31694 	0.642267 	0 6.31477 	0.640172 	0 6.3132 	0.638348 	0 6.31172 	0.636561 	0 6.31022 	0.634773 	0 6.30868 	0.632934 	0 6.27131 	0.597064 	0 6.23151 	0.560866 	0 6.18921 	0.524335 	0 6.1444 	0.487466 	0 6.10942 	0.456256 	0 6.07602 	0.420974 	0 6.0457 	0.390999 	0 6.017 	0.364556 	0 5.99442 	0.339606 	0 5.97315 	0.315202 	0 5.95245 	0.289069 	0 5.92971 	0.262726 	0 5.91347 	0.241665 	0 5.90338 	0.222662 	0 5.89181 	0.203596 	0 5.87916 	0.183529 	0 5.86497 	0.163363 	0 5.85625 	0.1438 	0 5.85335 	0.127412 	0 5.84917 	0.110998 	0 5.84295 	0.0943635 	0 5.83548 	0.0776879 	0 5.83339 	0.0589863 	0 5.83628 	0.0431136 	0 5.83798 	0.0272414 	0 5.83715 	0.0119446 	0 5.83532 	-0.00342164 	0 5.83918 	-0.0225216 	0 5.84729 	-0.0400118 	0 5.85421 	-0.0574478 	0 5.85857 	-0.0735136 	0 5.86181 	-0.0895535 	0 5.87117 	-0.110941 	0 5.88463 	-0.132477 	0 5.89661 	-0.153941 	0 5.90646 	-0.173307 	0 5.91502 	-0.192602 	0 5.92934 	-0.218061 	0 5.94822 	-0.247014 	0 5.96521 	-0.275828 	0 5.98115 	-0.302058 	0 5.99544 	-0.328139 	0 6.01448 	-0.359753 	0 6.03858 	-0.400914 	0 6.06018 	-0.441831 	0 6.08251 	-0.480292 	0 6.10471 	-0.520909 	0 6.13001 	-0.567562 	0 6.15448 	-0.619636 	0 6.17861 	-0.679442 	0 6.20598 	-0.738427 	0 6.23732 	-0.811813 	0 6.26479 	-0.884663 	0 6.28844 	-0.956975 	0 6.30855 	-1.02969 	0 6.30857 	-1.02977 	0 6.3086 	-1.02988 	0 6.30862 	-1.02998 	0 6.30865 	-1.03009 	0 6.30868 	-1.03019 	0 6.33244 	-1.12732 	0 6.35096 	-1.22236 	0 6.36436 	-1.31532 	0 6.3751 	-1.41397 	0 6.38837 	-1.53811 	0 6.40617 	-1.66384 	0 6.41771 	-1.78749 	0 6.4056 	-1.92998 	2.61922e-20 6.36921 	-2.07893 	5.36925e-20 6.31906 	-2.23369 	8.11944e-20 6.31084 	-2.2842 	2.32814e-20 6.29864 	-2.33157 	5.71776e-21 6.28226 	-2.37564 	3.11742e-20 6.26532 	-2.41944 	5.72524e-20 6.25097 	-2.45516 	7.91502e-20 6.22458 	-2.55096 	1.78876e-19 6.19625 	-2.64619 	2.82758e-19 6.16598 	-2.74085 	3.90771e-19 6.11985 	-2.82195 	2.74187e-19 6.06334 	-2.90224 	6.2457e-20 5.98338 	-3.02189 	4.92384e-20 5.89823 	-3.13858 	3.61624e-20 5.80137 	-3.23642 	8.54401e-21 5.70011 	-3.33232 	-1.80748e-20 5.62503 	-3.39902 	-3.62547e-20 5.61593 	-3.40828 	-3.60476e-20 5.60679 	-3.41753 	-3.58257e-20 5.59758 	-3.42614 	-3.69714e-20 5.58823 	-3.43307 	-4.17573e-20 5.57874 	-3.44006 	-4.65885e-20 5.45886 	-3.53626 	-2.83202e-20 5.33366 	-3.6305 	-9.4791e-21 5.20762 	-3.70747 	1.11385e-22 5.0814 	-3.76633 	-2.19031e-22 4.93221 	-3.83176 	5.94074e-23 4.932 	-3.83187 	3.39959e-23 4.9318 	-3.83199 	8.58406e-24 4.93161 	-3.83206 	1.50696e-23 4.93144 	-3.83212 	3.78266e-23 4.93126 	-3.83219 	6.05894e-23 4.80551 	-3.88155 	1.11385e-21 4.67566 	-3.92931 	2.4718e-21 4.54869 	-3.96582 	4.20024e-21 4.43102 	-3.98292 	6.32618e-21 4.33567 	-3.99529 	8.19752e-21 4.30539 	-4.00294 	1.33351e-20 4.2749 	-4.01051 	1.85105e-20 4.24964 	-4.01222 	9.20667e-21 4.22451 	-4.01358 	-8.25479e-22 4.19827 	-4.01493 	-1.12263e-20 4.12441 	-4.02225 	-6.36425e-20 4.04937 	-4.02904 	-1.1569e-19 3.9733 	-4.03515 	-1.65911e-19 3.90908 	-4.02962 	-1.01617e-19 3.85024 	-4.02424 	-4.30532e-20 3.77271 	-4.02638 	4.14286e-21 3.69529 	-4.02564 	4.19398e-20 3.62345 	-4.01354 	3.41456e-20 3.55054 	-4.00096 	2.66219e-20 3.46856 	-3.98648 	1.85986e-20 3.46517 	-3.98606 	1.9234e-20 3.46178 	-3.98563 	1.98697e-20 3.45838 	-3.98521 	2.05054e-20 3.45518 	-3.98448 	2.10389e-20 3.45207 	-3.98362 	2.15304e-20 3.38395 	-3.97163 	1.41194e-20 3.31376 	-3.95748 	7.41058e-21 3.24236 	-3.94262 	6.96426e-22 3.17058 	-3.91555 	6.17627e-21 3.10294 	-3.88879 	1.23601e-20 3.06089 	-3.87879 	3.47167e-20 3.01853 	-3.86741 	5.06055e-20 2.97696 	-3.84847 	2.33618e-20 2.93499 	-3.8293 	-3.82497e-21 2.88983 	-3.80863 	-3.27311e-20 2.87167 	-3.80206 	-3.88492e-20 2.85342 	-3.79544 	-4.49694e-20 2.83509 	-3.78877 	-5.1092e-20 2.81686 	-3.77969 	-5.73001e-20 2.79889 	-3.77015 	-6.34265e-20 2.7455 	-3.74909 	-1.07156e-19 2.69127 	-3.72755 	-1.51006e-19 2.63647 	-3.69692 	-1.46192e-19 2.58205 	-3.65954 	-8.81805e-20 2.52953 	-3.62345 	-3.26974e-20 2.51263 	-3.61454 	2.02713e-21 2.49568 	-3.60542 	3.51501e-20 2.47983 	-3.59305 	2.9903e-20 2.46391 	-3.58063 	2.46911e-20 2.44751 	-3.56784 	1.93792e-20 2.41695 	-3.54874 	5.65278e-20 2.38613 	-3.52945 	9.35969e-20 2.35505 	-3.50997 	1.30584e-19 2.32503 	-3.48544 	1.03469e-19 2.2956 	-3.46098 	7.22911e-20 2.25869 	-3.43531 	4.24528e-20 2.22132 	-3.40931 	1.25822e-20 2.18677 	-3.37648 	-2.8775e-21 2.15197 	-3.3433 	-1.80768e-20 2.11486 	-3.30799 	-3.41752e-20 2.11113 	-3.30512 	-3.17391e-20 2.1074 	-3.30224 	-2.93059e-20 2.10366 	-3.29937 	-2.68755e-20 2.10015 	-3.29592 	-3.3963e-20 2.09664 	-3.29246 	-4.13493e-20 2.05992 	-3.26019 	-1.64764e-19 2.02419 	-3.22587 	-2.56755e-19 1.98913 	-3.18976 	-2.99678e-19 1.9569 	-3.14888 	-1.93333e-19 1.92513 	-3.10866 	-8.89918e-20 1.91654 	-3.09899 	-7.79091e-20 1.90792 	-3.0893 	-6.68221e-20 1.90059 	-3.07847 	-5.65586e-20 1.89355 	-3.06737 	-4.64855e-20 1.88647 	-3.05619 	-3.63367e-20 1.86453 	-3.03081 	-1.17867e-20 1.84248 	-3.00532 	1.27847e-20 1.82087 	-2.97916 	2.9974e-20 1.80183 	-2.95018 	1.21333e-20 1.78293 	-2.92143 	-5.54359e-21 1.76954 	-2.90247 	-2.11583e-20 1.75612 	-2.88349 	-3.67613e-20 1.74488 	-2.86321 	-1.81232e-20 1.73458 	-2.84241 	1.47045e-20 1.72428 	-2.82158 	4.76394e-20 1.71195 	-2.80438 	1.21346e-20 1.69959 	-2.78717 	-2.33198e-20 1.68787 	-2.76948 	-3.49493e-20 1.67779 	-2.75063 	1.29463e-20 1.66775 	-2.73183 	6.07102e-20 1.65441 	-2.70763 	1.97507e-19 1.64111 	-2.68345 	3.34243e-19 1.63018 	-2.65851 	2.96386e-19 1.62102 	-2.63307 	1.3363e-19 1.6121 	-2.60804 	-2.78201e-20 1.6043 	-2.59468 	-5.73601e-20 1.5965 	-2.58133 	-8.69079e-20 1.58951 	-2.56764 	-8.9763e-20 1.58363 	-2.55348 	-5.627e-20 1.57777 	-2.53933 	-2.27505e-20 1.56777 	-2.51481 	-2.46107e-20 1.55789 	-2.49038 	-2.65106e-20 1.54994 	-2.46582 	-1.93064e-20 1.5445 	-2.44112 	-4.66692e-22 1.53943 	-2.41731 	1.77921e-20 1.53278 	-2.40283 	2.97574e-20 1.52617 	-2.38838 	4.1718e-20 1.52086 	-2.37371 	4.5751e-20 1.51651 	-2.35889 	4.41301e-20 1.51219 	-2.34403 	4.24794e-20 1.50695 	-2.32428 	2.55886e-20 1.50183 	-2.30465 	8.67224e-21 1.49779 	-2.28522 	-3.12611e-21 1.49644 	-2.26615 	-1.11251e-21 1.49534 	-2.24798 	8.21855e-22 1.48837 	-2.22748 	7.61855e-20 1.48151 	-2.20708 	1.51776e-19 1.47725 	-2.18684 	1.25693e-19 1.47392 	-2.16676 	6.77594e-20 1.4707 	-2.14649 	9.00025e-21 1.46949 	-2.13593 	-2.34288e-20 1.46834 	-2.12542 	-5.5814e-20 1.46745 	-2.11508 	-8.21707e-20 1.46899 	-2.10617 	-3.65672e-20 1.47055 	-2.09759 	7.88426e-21 1.46342 	-2.06737 	4.607e-21 1.45659 	-2.03743 	1.31195e-21 1.45583 	-2.01086 	-2.35093e-20 1.4564 	-1.98515 	-5.17899e-20 1.45898 	-1.96217 	-7.49775e-20 1.45851 	-1.96024 	-6.87413e-20 1.45805 	-1.95831 	-6.25558e-20 1.458 	-1.95658 	-6.72253e-20 1.45796 	-1.95486 	-7.18925e-20 1.45791 	-1.95313 	-7.65698e-20 1.45603 	-1.92817 	-2.09796e-19 1.45452 	-1.90351 	-3.42287e-19 1.45374 	-1.87943 	-4.47078e-19 1.458 	-1.85918 	-1.91376e-19 1.46237 	-1.84079 	4.7164e-20 1.46023 	-1.82592 	1.11086e-19 1.4582 	-1.81115 	1.74815e-19 1.45912 	-1.7985 	1.42187e-19 1.46016 	-1.78595 	1.0966e-19 1.46137 	-1.77315 	7.63173e-20 1.46229 	-1.76355 	6.73595e-20 1.4633 	-1.75402 	5.84238e-20 1.46439 	-1.74455 	4.95105e-20 1.46701 	-1.73634 	5.15929e-20 1.46969 	-1.72855 	5.41161e-20 1.46918 	-1.70528 	2.94229e-20 1.46902 	-1.6823 	4.66788e-21 1.47195 	-1.66174 	2.03175e-20 1.47653 	-1.64226 	4.54066e-20 1.48247 	-1.62515 	6.86393e-20 1.48246 	-1.62112 	6.75328e-20 1.48254 	-1.61716 	6.76941e-20 1.48312 	-1.61358 	7.51734e-20 1.48372 	-1.61001 	8.26508e-20 1.48433 	-1.6064 	9.02145e-20 1.48705 	-1.59062 	1.39718e-19 1.49003 	-1.57504 	1.89098e-19 1.49328 	-1.55966 	2.38351e-19 1.49847 	-1.54612 	1.68554e-19 1.5039 	-1.53391 	8.2078e-20 1.50556 	-1.51446 	1.55274e-19 1.50806 	-1.49574 	2.03279e-19 1.51267 	-1.47895 	1.61513e-19 1.51763 	-1.46242 	1.20275e-19 1.52332 	-1.44496 	7.65833e-20 1.52336 	-1.44486 	7.62107e-20 1.52339 	-1.44476 	7.58381e-20 1.52343 	-1.44466 	7.54656e-20 1.52347 	-1.44456 	7.5961e-20 1.52352 	-1.44448 	7.68362e-20 1.52791 	-1.42744 	1.27128e-19 1.53272 	-1.41068 	1.75176e-19 1.5379 	-1.39419 	2.22834e-19 1.54468 	-1.37948 	1.84351e-19 1.55178 	-1.36656 	1.17221e-19 1.55512 	-1.34895 	2.03253e-19 1.55935 	-1.33224 	2.3905e-19 1.565 	-1.31709 	1.74302e-19 1.57098 	-1.30218 	1.09768e-19 1.57732 	-1.28863 	3.78804e-20 1.57754 	-1.28768 	3.76397e-20 1.5778 	-1.28678 	3.68457e-20 1.57811 	-1.28593 	3.5354e-20 1.57841 	-1.28509 	3.38619e-20 1.57872 	-1.28424 	3.23616e-20 1.58396 	-1.27025 	-1.32819e-20 1.58949 	-1.25646 	-5.88459e-20 1.59533 	-1.24286 	-1.04327e-19 1.60206 	-1.23048 	-8.93665e-20 1.60914 	-1.21972 	-2.99059e-20 1.61359 	-1.2042 	-7.52935e-20 1.61836 	-1.18888 	-1.21095e-19 1.62445 	-1.17551 	-1.03363e-19 1.63173 	-1.16284 	-6.09368e-20 1.63977 	-1.15146 	3.30284e-22 1.64204 	-1.14468 	2.86079e-20 1.64464 	-1.13839 	2.80973e-20 1.64748 	-1.13247 	7.07553e-21 1.65039 	-1.12659 	-1.38961e-20 1.6535 	-1.12046 	-3.58559e-20 1.65717 	-1.11359 	-6.79713e-20 1.66092 	-1.10677 	-9.99736e-20 1.66476 	-1.10001 	-1.31862e-19 1.66883 	-1.09368 	-1.31403e-19 1.67309 	-1.08817 	-7.9885e-20 1.67825 	-1.07443 	-1.11923e-19 1.68427 	-1.06116 	-1.36322e-19 1.69161 	-1.04876 	-1.4566e-19 1.6998 	-1.03815 	-1.3533e-19 1.70789 	-1.02818 	-1.25341e-19 1.71367 	-1.01467 	-2.75649e-19 1.71994 	-1.00198 	-3.49526e-19 1.72683 	-0.990543 	-2.95457e-19 1.73399 	-0.979262 	-2.41896e-19 1.74228 	-0.969178 	-1.16122e-19 1.74436 	-0.964885 	-8.29429e-20 1.74659 	-0.961039 	-8.51405e-20 1.74887 	-0.957325 	-9.68833e-20 1.75119 	-0.953628 	-1.08579e-19 1.75363 	-0.94979 	-1.20724e-19 1.75852 	-0.942391 	-1.24353e-19 1.76353 	-0.935059 	-1.27955e-19 1.76866 	-0.927795 	-1.31529e-19 1.77393 	-0.920823 	-1.29705e-19 1.7793 	-0.915025 	-1.05185e-19 1.78536 	-0.903093 	-1.32797e-19 1.79241 	-0.89173 	-1.44926e-19 1.80035 	-0.880876 	-1.43697e-19 1.80867 	-0.871815 	-1.0293e-19 1.81696 	-0.863283 	-6.09035e-20 1.82358 	-0.851592 	-1.64868e-19 1.83046 	-0.840073 	-2.66343e-19 1.83762 	-0.83038 	-2.25033e-19 1.84583 	-0.821268 	-1.27949e-19 1.85452 	-0.812822 	4.50643e-23 1.86111 	-0.802309 	1.42931e-22 1.86786 	-0.793423 	1.0845e-22 1.8748 	-0.784677 	6.99877e-23 1.88194 	-0.776032 	3.11006e-23 1.89028 	-0.766305 	-1.36391e-23 1.89069 	-0.765852 	7.75074e-22 1.8911 	-0.765399 	1.56322e-21 1.89151 	-0.764947 	2.35081e-21 1.89193 	-0.764494 	3.13784e-21 1.89233 	-0.764131 	4.62337e-22 1.89981 	-0.754671 	-2.55574e-20 1.9076 	-0.745388 	-4.74246e-20 1.91562 	-0.736215 	-6.91135e-20 1.92386 	-0.727172 	-8.98505e-20 1.93176 	-0.720184 	-3.11641e-20 1.93866 	-0.710228 	-2.10936e-20 1.94622 	-0.700707 	-1.38568e-20 1.95461 	-0.691724 	-1.03442e-20 1.96278 	-0.684458 	-1.59506e-20 1.97092 	-0.67759 	-2.24164e-20 1.97824 	-0.667883 	5.39777e-20 1.98578 	-0.658278 	1.30484e-19 1.99321 	-0.650193 	1.32364e-19 2.00152 	-0.643247 	6.57246e-20 2.00986 	-0.636504 	1.62688e-22 2.01757 	-0.627052 	9.65448e-23 2.02511 	-0.618681 	-1.12465e-20 2.03253 	-0.611141 	-3.10921e-20 2.04014 	-0.603679 	-5.09139e-20 2.0486 	-0.597036 	-6.39758e-20 2.05548 	-0.589368 	-1.06344e-19 2.06198 	-0.582887 	-1.09885e-19 2.06861 	-0.576464 	-1.13484e-19 2.07538 	-0.570097 	-1.17142e-19 2.08331 	-0.562853 	-1.21408e-19 2.08411 	-0.562157 	-1.22647e-19 2.08491 	-0.561462 	-1.23884e-19 2.08571 	-0.560767 	-1.25122e-19 2.08651 	-0.560073 	-1.26359e-19 2.08724 	-0.559509 	-1.22165e-19 2.0947 	-0.552206 	-9.42473e-20 2.1024 	-0.545048 	-6.5004e-20 2.11027 	-0.53796 	-3.57986e-20 2.11831 	-0.530941 	-6.63134e-21 2.12557 	-0.525456 	1.79184e-22 2.13273 	-0.517691 	6.74885e-20 2.14056 	-0.510707 	8.6582e-20 2.14857 	-0.503815 	1.03718e-19 2.15622 	-0.497743 	8.42858e-20 2.16324 	-0.492824 	1.48565e-20 2.17063 	-0.485302 	-5.50851e-20 2.17824 	-0.477927 	-1.18957e-19 2.18631 	-0.471291 	-1.35005e-19 2.19322 	-0.466426 	-6.7272e-20 2.2002 	-0.461645 	-7.22861e-23 2.20779 	-0.454366 	-3.93889e-23 2.21555 	-0.447145 	-6.6638e-24 2.22266 	-0.441284 	0 2.2295 	-0.436567 	0 2.23641 	-0.431924 	0 2.24417 	-0.424886 	0 2.25184 	-0.418172 	0 2.25834 	-0.412937 	0 2.26503 	-0.40816 	-1.01099e-20 2.27184 	-0.403655 	-2.51328e-20 2.27972 	-0.396857 	-6.19724e-21 2.28664 	-0.391224 	-6.37129e-21 2.29314 	-0.386174 	-1.58372e-20 2.29976 	-0.381188 	-2.66874e-20 2.30643 	-0.376821 	-6.64311e-20 2.31414 	-0.370511 	-2.85119e-20 2.32048 	-0.36561 	-3.03008e-20 2.32695 	-0.360743 	-3.20615e-20 2.33354 	-0.355909 	-3.37942e-20 2.34013 	-0.351391 	-4.6455e-20 2.34635 	-0.34655 	-3.6941e-20 2.35194 	-0.342352 	-3.83853e-20 2.35762 	-0.338179 	-3.98084e-20 2.36339 	-0.334029 	-4.12103e-20 2.3702 	-0.329232 	-4.2816e-20 2.37075 	-0.328858 	-4.26917e-20 2.3713 	-0.328484 	-4.25676e-20 2.37185 	-0.328111 	-4.24436e-20 2.3724 	-0.327738 	-4.23199e-20 2.37288 	-0.327422 	-4.25064e-20 2.37905 	-0.322831 	-4.93016e-20 2.38531 	-0.318296 	-5.38492e-20 2.39168 	-0.313788 	-5.83199e-20 2.39817 	-0.309308 	-6.27142e-20 2.4038 	-0.305584 	-3.89536e-20 2.41013 	-0.300868 	-7.52332e-20 2.41629 	-0.296508 	-8.73654e-20 2.42256 	-0.292174 	-9.94388e-20 2.42893 	-0.287865 	-1.11454e-19 2.43357 	-0.284881 	-7.12824e-20 2.44014 	-0.280097 	-1.18637e-19 2.44618 	-0.27591 	-1.21163e-19 2.45233 	-0.271747 	-1.23642e-19 2.45821 	-0.267845 	-1.18992e-19 2.46218 	-0.265282 	-7.53363e-20 2.4688 	-0.260666 	-1.17866e-19 2.47496 	-0.256461 	-1.28072e-19 2.48096 	-0.252466 	-1.22466e-19 2.4859 	-0.249207 	-9.48027e-20 2.48963 	-0.246749 	-4.32002e-20 2.49622 	-0.242336 	4.31588e-20 2.50261 	-0.238116 	1.03959e-19 2.50845 	-0.234287 	1.09453e-19 2.51242 	-0.231601 	5.03794e-20 2.51591 	-0.229246 	-2.6688e-20 2.52245 	-0.225033 	-1.75846e-20 2.5291 	-0.220838 	-8.49105e-21 2.53461 	-0.217256 	8.66926e-21 2.53779 	-0.214989 	2.59579e-20 2.54102 	-0.212735 	4.32214e-20 2.5475 	-0.208717 	-4.33244e-20 2.55408 	-0.204716 	-1.29883e-19 2.55907 	-0.201496 	-1.41231e-19 2.56199 	-0.19933 	-7.1069e-20 2.56496 	-0.197175 	-1.00523e-21 2.57136 	-0.193348 	-9.1994e-23 2.57786 	-0.189537 	8.00456e-22 2.58237 	-0.186653 	-1.56565e-20 2.58503 	-0.184585 	-4.9404e-20 2.58773 	-0.182526 	-8.31264e-20 2.59405 	-0.178887 	-4.76706e-20 2.60046 	-0.175261 	-1.22304e-20 2.60453 	-0.172686 	-8.54681e-21 2.60692 	-0.170714 	-2.59306e-20 2.60935 	-0.16875 	-4.32988e-20 2.61557 	-0.165293 	-2.5988e-20 2.62187 	-0.161851 	-8.72168e-21 2.62548 	-0.159574 	-9.46582e-21 2.62767 	-0.157678 	-2.6054e-20 2.62984 	-0.155808 	-4.33796e-20 2.63595 	-0.152528 	-1.64889e-19 2.64159 	-0.149475 	-2.61726e-19 2.64504 	-0.147317 	-2.57036e-19 2.6473 	-0.145439 	-1.6475e-19 2.6492 	-0.143658 	-4.33601e-20 2.6552 	-0.140553 	-2.59818e-20 2.6602 	-0.137847 	-8.62121e-21 2.66348 	-0.135804 	8.709e-21 2.66583 	-0.133958 	2.13123e-20 2.66747 	-0.132266 	3.02544e-20 2.67334 	-0.129328 	9.13234e-20 2.67773 	-0.126932 	1.18671e-19 2.68084 	-0.125 	1.16997e-19 2.68328 	-0.123198 	9.21149e-20 2.68466 	-0.121593 	3.16778e-20 2.6904 	-0.118819 	2.32356e-20 2.6942 	-0.116697 	1.48097e-20 2.69715 	-0.114874 	6.3888e-21 2.69968 	-0.113126 	0 2.7008 	-0.111604 	0 2.70641 	-0.108989 	0 2.70965 	-0.107111 	1.47251e-20 2.71243 	-0.105393 	3.25555e-20 2.71505 	-0.103705 	5.03708e-20 2.71592 	-0.102265 	6.81127e-20 2.72139 	-0.0998032 	1.90111e-19 2.72411 	-0.0981416 	1.93594e-19 2.72673 	-0.096524 	1.91068e-19 2.72939 	-0.0949097 	1.88592e-19 2.73006 	-0.0935431 	7.02187e-20 2.7352 	-0.0912813 	5.32043e-20 2.73761 	-0.0897583 	3.6243e-20 2.74007 	-0.0882382 	1.92735e-20 2.74256 	-0.0867209 	2.29595e-21 2.74324 	-0.0854057 	1.46959e-20 2.74793 	-0.0833606 	-4.34727e-24 2.75019 	-0.0819319 	-2.98933e-23 2.75248 	-0.0805056 	-5.54292e-23 2.75482 	-0.0790818 	-8.09549e-23 2.75551 	-0.0778223 	6.38813e-21 2.75977 	-0.0759721 	-5.07989e-20 2.76188 	-0.074634 	-4.95001e-20 2.76402 	-0.0732981 	-4.82288e-20 2.7662 	-0.0719642 	-4.69848e-20 2.76688 	-0.0707634 	-5.64294e-21 2.77075 	-0.0690886 	8.56001e-23 2.77271 	-0.0678376 	6.04935e-23 2.7747 	-0.0665884 	3.53772e-23 2.77673 	-0.0653409 	1.02512e-23 2.77741 	-0.0642008 	0 2.78092 	-0.0626839 	1.1193e-20 2.78273 	-0.0615164 	3.75165e-20 2.78458 	-0.0603504 	6.38312e-20 2.78646 	-0.0591859 	9.01373e-20 2.78713 	-0.0581076 	1.07501e-19 2.7903 	-0.056733 	1.73093e-19 2.79198 	-0.0556453 	1.72015e-19 2.79368 	-0.0545589 	1.70964e-19 2.79542 	-0.0534739 	1.69942e-19 2.79608 	-0.052458 	1.02492e-19 2.79894 	-0.0512115 	8.7583e-20 2.80048 	-0.0502002 	5.31492e-20 2.80205 	-0.04919 	1.871e-20 2.80366 	-0.0481808 	-1.57347e-20 2.80429 	-0.0472271 	-4.66898e-20 2.80687 	-0.0460963 	-9.02021e-20 2.80828 	-0.0451578 	-8.89942e-20 2.80973 	-0.0442203 	-8.78201e-20 2.8112 	-0.0432837 	-8.66799e-20 2.81181 	-0.0423913 	-3.70517e-20 2.81412 	-0.041365 	-4.95307e-20 2.81542 	-0.0404959 	-3.17099e-20 2.81674 	-0.0396276 	-1.39069e-20 2.81809 	-0.0387601 	3.87821e-21 2.81866 	-0.0379281 	4.31042e-20 2.82075 	-0.0369963 	4.98654e-20 2.82193 	-0.0361932 	6.73366e-20 2.82313 	-0.0353908 	8.47994e-20 2.82436 	-0.034589 	1.02254e-19 2.8249 	-0.0338156 	1.22069e-19 2.82677 	-0.0329696 	1.46221e-19 2.82784 	-0.0322291 	1.36998e-19 2.82894 	-0.0314892 	1.27797e-19 2.83006 	-0.0307498 	1.18616e-19 2.83055 	-0.0300334 	8.16907e-20 2.83223 	-0.0292652 	5.8066e-20 2.8332 	-0.0285841 	3.23177e-20 2.8342 	-0.0279034 	6.56754e-21 2.83521 	-0.0272232 	-1.91844e-20 2.83564 	-0.0265616 	-4.10476e-20 2.83717 	-0.0258642 	-5.61499e-20 2.83804 	-0.0252392 	-3.83755e-20 2.83893 	-0.0246145 	-2.06271e-20 2.83985 	-0.0239903 	-2.90473e-21 2.84023 	-0.0233813 	4.848e-20 2.8416 	-0.0227484 	1.02289e-19 2.84239 	-0.0221764 	1.09969e-19 2.84319 	-0.0216046 	1.17692e-19 2.84401 	-0.0210332 	1.25459e-19 2.84433 	-0.0204744 	8.86197e-20 2.84558 	-0.0199005 	7.18029e-20 2.84628 	-0.0193784 	6.32592e-20 2.847 	-0.0188565 	5.47115e-20 2.84773 	-0.0183348 	4.61596e-20 2.84798 	-0.0178238 	3.76104e-20 2.84913 	-0.0173038 	1.44335e-20 2.84975 	-0.0168286 	1.47818e-20 2.85039 	-0.0163535 	1.51075e-20 2.85104 	-0.0158786 	1.54107e-20 2.85122 	-0.0154129 	4.147