# vtk DataFile Version 2.0
track0
ASCII
DATASET POLYDATA
POINTS 12278 float
-0.0205 0.001 1e-05
-0.02052 0.000999216 1e-05
-0.02054 0.000998592 1e-05
-0.02056 0.000998126 1e-05
-0.02058 0.000997818 1e-05
-0.0206 0.000997665 1e-05
-0.0205 0.00367778 1e-05
-0.02052 0.00367703 1e-05
-0.02054 0.00367643 1e-05
-0.02056 0.00367599 1e-05
-0.02058 0.00367569 1e-05
-0.0206 0.00367554 1e-05
-0.0205 0.00635556 1e-05
-0.02052 0.00635527 1e-05
-0.02054 0.00635505 1e-05
-0.02056 0.00635488 1e-05
-0.02058 0.00635476 1e-05
-0.0206 0.00635471 1e-05
-0.0205 0.00903333 1e-05
-0.02052 0.00903311 1e-05
-0.02054 0.00903293 1e-05
-0.02056 0.0090328 1e-05
-0.02058 0.00903271 1e-05
-0.0206 0.00903266 1e-05
-0.0205 0.0117111 1e-05
-0.02052 0.0117111 1e-05
-0.02054 0.011711 1e-05
-0.02056 0.011711 1e-05
-0.02058 0.011711 1e-05
-0.0206 0.011711 1e-05
-0.0205 0.0143889 1e-05
-0.02052 0.014389 1e-05
-0.02054 0.014389 1e-05
-0.02056 0.0143891 1e-05
-0.02058 0.0143891 1e-05
-0.0206 0.0143891 1e-05
-0.0205 0.0170667 1e-05
-0.02052 0.017067 1e-05
-0.02054 0.0170672 1e-05
-0.02056 0.0170674 1e-05
-0.02058 0.0170675 1e-05
-0.0206 0.0170676 1e-05
-0.0205 0.0197444 1e-05
-0.02052 0.019745 1e-05
-0.02054 0.0197454 1e-05
-0.02056 0.0197457 1e-05
-0.02058 0.0197459 1e-05
-0.0206 0.019746 1e-05
-0.0205 0.0224222 1e-05
-0.02052 0.022423 1e-05
-0.02054 0.0224236 1e-05
-0.02056 0.0224241 1e-05
-0.02058 0.0224244 1e-05
-0.0206 0.0224245 1e-05
-0.0205 0.0251 1e-05
-0.02052 0.0251003 1e-05
-0.02054 0.0251005 1e-05
-0.02056 0.0251007 1e-05
-0.02058 0.0251008 1e-05
-0.0206 0.0251008 1e-05
-0.0205 0.001 1e-05
-0.0203632 0.00100536 1e-05
-0.0202266 0.00101331 1e-05
-0.0200901 0.00102296 1e-05
-0.0200427 0.00102682 1e-05
-0.0198376 0.00104418 1e-05
-0.0196338 0.00107322 1e-05
-0.0194327 0.00111734 1e-05
-0.0192368 0.00118024 1e-05
-0.0190172 0.00124951 1e-05
-0.0189002 0.00128348 1e-05
-0.0187827 0.00131598 1e-05
-0.0186649 0.001347 1e-05
-0.0185469 0.001377 1e-05
-0.0183807 0.00141936 1e-05
-0.0182041 0.00146458 1e-05
-0.0180267 0.00150692 1e-05
-0.0178487 0.0015464 1e-05
-0.0176703 0.00158389 1e-05
-0.0174976 0.00161991 1e-05
-0.0172846 0.00166394 1e-05
-0.0170715 0.00170741 1e-05
-0.0168583 0.00175029 1e-05
-0.0166449 0.00179219 1e-05
-0.0163945 0.00184007 1e-05
-0.0163234 0.00185324 1e-05
-0.0162522 0.00186629 1e-05
-0.016181 0.00187921 1e-05
-0.0161097 0.00189201 1e-05
-0.0160387 0.0019046 1e-05
-0.0157586 0.0019535 1e-05
-0.0154779 0.00199931 1e-05
-0.0151968 0.00204225 1e-05
-0.0149154 0.00208283 1e-05
-0.0146381 0.00212134 1e-05
-0.0143838 0.00215527 1e-05
-0.0141293 0.00218766 1e-05
-0.0138747 0.00221855 1e-05
-0.0136198 0.00224797 1e-05
-0.0132934 0.00228369 1e-05
-0.0132791 0.00228515 1e-05
-0.0132648 0.0022866 1e-05
-0.0132504 0.00228805 1e-05
-0.0132361 0.0022895 1e-05
-0.0132214 0.00229098 1e-05
-0.0129776 0.00231543 1e-05
-0.0127337 0.00233865 1e-05
-0.0124897 0.00236061 1e-05
-0.0122456 0.00238129 1e-05
-0.0120025 0.00240058 1e-05
-0.0117547 0.00241909 1e-05
-0.0115067 0.00243627 1e-05
-0.0112587 0.00245231 1e-05
-0.0110106 0.00246734 1e-05
-0.0107632 0.00248136 1e-05
-0.0105252 0.00249391 1e-05
-0.0102872 0.00250547 1e-05
-0.0100491 0.00251602 1e-05
-0.00981105 0.00252575 1e-05
-0.00957337 0.00253471 1e-05
-0.00934491 0.00254261 1e-05
-0.00911643 0.00254974 1e-05
-0.00888792 0.0025561 1e-05
-0.0086594 0.00256171 1e-05
-0.00843108 0.00256668 1e-05
-0.00821175 0.00257084 1e-05
-0.00799241 0.00257439 1e-05
-0.00777306 0.00257731 1e-05
-0.0075537 0.00257952 1e-05
-0.00733443 0.00258114 1e-05
-0.00712387 0.00258212 1e-05
-0.0069133 0.00258255 1e-05
-0.00670273 0.00258243 1e-05
-0.00649216 0.00258162 1e-05
-0.0062816 0.00258017 1e-05
-0.00607944 0.00257819 1e-05
-0.0058773 0.00257565 1e-05
-0.00567516 0.00257256 1e-05
-0.00547303 0.00256874 1e-05
-0.00527083 0.00256419 1e-05
-0.00507675 0.00255912 1e-05
-0.00488269 0.00255343 1e-05
-0.00468865 0.00254711 1e-05
-0.00449464 0.00253997 1e-05
-0.00430044 0.0025319 1e-05
-0.00411412 0.00252329 1e-05
-0.00392784 0.00251388 1e-05
-0.00374159 0.00250368 1e-05
-0.0035554 0.00249254 1e-05
-0.00336883 0.00248016 1e-05
-0.00318995 0.00246711 1e-05
-0.00301115 0.00245299 1e-05
-0.00283245 0.00243774 1e-05
-0.00265386 0.00242121 1e-05
-0.00247443 0.00240314 1e-05
-0.0023027 0.00238425 1e-05
-0.00213114 0.00236384 1e-05
-0.00195982 0.00234154 1e-05
-0.00178875 0.00231738 1e-05
-0.00161577 0.00229105 1e-05
-0.00161568 0.00229104 1e-05
-0.00161559 0.00229102 1e-05
-0.00161551 0.00229101 1e-05
-0.00161542 0.00229099 1e-05
-0.00161533 0.00229098 1e-05
-0.00145055 0.00226407 1e-05
-0.00128617 0.00223481 1e-05
-0.00112221 0.00220326 1e-05
-0.000958703 0.00216946 1e-05
-0.000791418 0.00213236 1e-05
-0.000633135 0.00209425 1e-05
-0.000475556 0.00205332 1e-05
-0.000318719 0.00200963 1e-05
-0.000162835 0.00196266 1e-05
0 0.00190951 1e-05
3.73343e-05 0.00189631 1e-05
7.45687e-05 0.00188283 1e-05
0.000111704 0.00186908 1e-05
0.000148743 0.00185508 1e-05
0.000179049 0.00184338 1e-05
0.000248917 0.00181594 1e-05
0.000318373 0.00178747 1e-05
0.000387405 0.00175799 1e-05
0.000455996 0.0017275 1e-05
0.000528387 0.00169412 1e-05
0.000634886 0.00164314 1e-05
0.000740278 0.00158991 1e-05
0.00084451 0.00153444 1e-05
0.00094762 0.00147691 1e-05
0.00101985 0.00143468 1e-05
0.00102805 0.00142973 1e-05
0.00103625 0.00142475 1e-05
0.00104444 0.00141976 1e-05
0.00105262 0.00141475 1e-05
0.00106088 0.00140968 1e-05
0.00116821 0.00134349 1e-05
0.00127404 0.00127493 1e-05
0.00137827 0.00120397 1e-05
0.00148099 0.00113084 1e-05
0.00159665 0.00104511 1e-05
0.00159682 0.00104497 1e-05
0.001597 0.00104484 1e-05
0.00159717 0.0010447 1e-05
0.00159734 0.00104457 1e-05
0.00159752 0.00104443 1e-05
0.00169217 0.000970869 1e-05
0.00178542 0.000895541 1e-05
0.00187719 0.000818415 1e-05
0.00196755 0.000739636 1e-05
0.00203794 0.000676367 1e-05
0.00205801 0.000657865 1e-05
0.00207801 0.000639274 1e-05
0.00209792 0.000620593 1e-05
0.00211777 0.000601849 1e-05
0.00213833 0.000582321 1e-05
0.00219145 0.000531516 1e-05
0.00224407 0.000480194 1e-05
0.00229617 0.000428347 1e-05
0.00234775 0.00037597 1e-05
0.00239403 0.000328255 1e-05
0.00245189 0.000267778 1e-05
0.00250912 0.000206702 1e-05
0.00256572 0.000145042 1e-05
0.0026218 8.29159e-05 1e-05
0.00268334 1.35728e-05 1e-05
0.0026857 1.08583e-05 1e-05
0.00268806 8.14269e-06 1e-05
0.00269042 5.42612e-06 1e-05
0.00269278 2.70855e-06 1e-05
0.00269513 0 1e-05
0.00275902 -7.37367e-05 1e-05
0.0028223 -0.000148005 1e-05
0.00288494 -0.000222813 1e-05
0.00294692 -0.000298173 1e-05
0.00300399 -0.000368654 1e-05
0.00304971 -0.000425953 1e-05
0.00309512 -0.000483498 1e-05
0.00314022 -0.000541284 1e-05
0.00318507 -0.000599267 1e-05
0.00323259 -0.000661264 1e-05
0.00325062 -0.00068503 1e-05
0.0032686 -0.000708836 1e-05
0.00328653 -0.000732681 1e-05
0.0033044 -0.000756567 1e-05
0.00332193 -0.000780089 1e-05
0.00339007 -0.000871877 1e-05
0.00345761 -0.000964107 1e-05
0.00352453 -0.00105679 1e-05
0.00359091 -0.00114986 1e-05
0.00365377 -0.00123896 1e-05
0.00368024 -0.00127687 1e-05
0.00370663 -0.00131483 1e-05
0.00373295 -0.00135285 1e-05
0.00375921 -0.00139091 1e-05
0.00378611 -0.00142999 1e-05
0.00383008 -0.00149409 1e-05
0.00387383 -0.00155833 1e-05
0.00391736 -0.00162272 1e-05
0.00396067 -0.00168726 1e-05
0.00400281 -0.00175043 1e-05
0.00407103 -0.00185329 1e-05
0.00413884 -0.00195642 1e-05
0.00420622 -0.00205983 1e-05
0.00427332 -0.00216342 1e-05
0.00434393 -0.00227312 1e-05
0.00434996 -0.00228255 1e-05
0.00435599 -0.00229199 1e-05
0.00436202 -0.00230144 1e-05
0.00436804 -0.00231088 1e-05
0.00437404 -0.0023203 1e-05
0.00445489 -0.00244725 1e-05
0.00453529 -0.00257448 1e-05
0.00461529 -0.00270197 1e-05
0.00469494 -0.00282968 1e-05
0.00477281 -0.00295497 1e-05
0.00479947 -0.00299801 1e-05
0.0048261 -0.00304107 1e-05
0.0048527 -0.00308414 1e-05
0.0048793 -0.00312721 1e-05
0.00490609 -0.00317061 1e-05
0.00496671 -0.00326882 1e-05
0.00502719 -0.00336711 1e-05
0.00508752 -0.0034655 1e-05
0.00514771 -0.00356397 1e-05
0.00520735 -0.00366161 1e-05
0.0052604 -0.00374853 1e-05
0.00531342 -0.00383547 1e-05
0.00536639 -0.00392244 1e-05
0.00541939 -0.00400939 1e-05
0.00547262 -0.00409661 1e-05
0.00551559 -0.00416691 1e-05
0.00555852 -0.00423723 1e-05
0.00560143 -0.00430757 1e-05
0.00564431 -0.00437793 1e-05
0.00568713 -0.00444811 1e-05
0.00575841 -0.00456486 1e-05
0.00582974 -0.00468158 1e-05
0.00590112 -0.00479828 1e-05
0.00597264 -0.00491488 1e-05
0.00604356 -0.00503006 1e-05
0.00607981 -0.0050887 1e-05
0.00611607 -0.00514733 1e-05
0.00615234 -0.00520596 1e-05
0.00618863 -0.00526458 1e-05
0.00622503 -0.00532326 1e-05
0.00630381 -0.00545002 1e-05
0.00638278 -0.00557667 1e-05
0.00646195 -0.00570319 1e-05
0.00654139 -0.00582955 1e-05
0.00661893 -0.00595208 1e-05
0.00666283 -0.006021 1e-05
0.00670679 -0.00608989 1e-05
0.0067508 -0.00615875 1e-05
0.00679489 -0.00622755 1e-05
0.00683936 -0.00629671 1e-05
0.00691125 -0.00640811 1e-05
0.00698338 -0.00651935 1e-05
0.00705578 -0.00663042 1e-05
0.00712846 -0.00674129 1e-05
0.00719878 -0.00684775 1e-05
0.00726948 -0.00695401 1e-05
0.00734039 -0.00706012 1e-05
0.00741153 -0.00716608 1e-05
0.00748299 -0.00727183 1e-05
0.00755597 -0.00737909 1e-05
0.0076014 -0.00744538 1e-05
0.00764696 -0.00751159 1e-05
0.00769265 -0.0075777 1e-05
0.00773847 -0.00764373 1e-05
0.00778313 -0.00770775 1e-05
0.00790091 -0.00787572 1e-05
0.00801946 -0.00804315 1e-05
0.00813878 -0.00821002 1e-05
0.0082591 -0.00837617 1e-05
0.00837203 -0.00853008 1e-05
0.00837974 -0.00854044 1e-05
0.00838745 -0.0085508 1e-05
0.00839516 -0.00856116 1e-05
0.00840288 -0.00857151 1e-05
0.00841063 -0.00858189 1e-05
0.0085216 -0.00873053 1e-05
0.0086334 -0.00887854 1e-05
0.00874604 -0.00902592 1e-05
0.00885955 -0.00917263 1e-05
0.00896551 -0.00930772 1e-05
0.00903013 -0.00938904 1e-05
0.00909501 -0.00947015 1e-05
0.00916015 -0.00955105 1e-05
0.0092256 -0.0096317 1e-05
0.00929322 -0.00971439 1e-05
0.0093473 -0.00977998 1e-05
0.00940157 -0.00984542 1e-05
0.00945604 -0.00991069 1e-05
0.0095107 -0.00997579 1e-05
0.0095636 -0.0100384 1e-05
[...]
POINT_DATA 12278
 FIELD attributes 1
U 3 12278 float
9.72339 	0.381311 	0 9.77871 	0.305049 	0 9.83405 	0.228765 	0 9.8894 	0.152465 	0 9.94476 	0.0761532 	0 10 	0 	0
10.0671 	0.375483 	0 10.0537 	0.300387 	0 10.0403 	0.225271 	0 10.0268 	0.150141 	0 10.0134 	0.0750008 	0 10 	0 	0
10.0364 	0.141572 	0 10.0291 	0.113304 	0 10.0218 	0.085089 	0 10.0145 	0.0569263 	0 10.0071 	0.0288164 	0 10 	0 	0
10.0137 	0.111519 	0 10.011 	0.0892151 	0 10.0082 	0.0669108 	0 10.0055 	0.0446061 	0 10.0027 	0.0223012 	0 10 	0 	0
10.0097 	0.0196533 	0 10.0078 	0.0157227 	0 10.0058 	0.011792 	0 10.0039 	0.00786133 	0 10.0019 	0.00393066 	0 10 	0 	0
10.0102 	-0.0372875 	0 10.0082 	-0.02983 	0 10.0061 	-0.0223725 	0 10.0041 	-0.014915 	0 10.002 	-0.00745741 	0 10 	0 	0
10.0174 	-0.148997 	0 10.0139 	-0.119197 	0 10.0105 	-0.0893967 	0 10.007 	-0.0595953 	0 10.0035 	-0.0297932 	0 10 	0 	0
10.0362 	-0.265901 	0 10.029 	-0.212721 	0 10.0217 	-0.159534 	0 10.0145 	-0.106342 	0 10.0072 	-0.053146 	0 10 	0 	0
10.0563 	-0.387167 	0 10.045 	-0.309734 	0 10.0338 	-0.23228 	0 10.0225 	-0.15481 	0 10.0112 	-0.0773281 	0 10 	0 	0
8.30133 	-0.114495 	0 8.4287 	-0.091596 	0 8.55659 	-0.0686962 	0 8.68498 	-0.0457957 	0 8.81385 	-0.0228949 	0 8.94315 	0 	0
9.72339 	0.381311 	0 9.5415 	0.555241 	0 9.39671 	0.663651 	0 9.26203 	0.754271 	0 9.2183 	0.780385 	0 8.95344 	1.27614 	0 8.70578 	1.91036 	0 8.48173 	2.72184 	0 8.46724 	2.67123 	0 8.47252 	2.45986 	0 8.50117 	2.35314 	0 8.52498 	2.2443 	0 8.51221 	2.16311 	0 8.42487 	2.14738 	0 8.30214 	2.12559 	0 8.30117 	1.9821 	0 8.28715 	1.83798 	0 8.21181 	1.72569 	0 8.035 	1.67507 	0 7.86306 	1.62575 	0 7.68323 	1.56759 	0 7.50177 	1.50875 	0 7.42793 	1.45839 	0 7.36148 	1.40771 	0 7.27865 	1.34671 	0 7.22249 	1.32376 	0 7.16614 	1.3007 	0 7.10958 	1.27753 	0 7.07928 	1.2544 	0 7.05291 	1.23121 	0 6.97394 	1.13838 	0 6.88841 	1.05226 	0 6.79883 	0.980328 	0 6.71191 	0.932082 	0 6.6228 	0.883658 	0 6.55089 	0.833774 	0 6.49229 	0.787587 	0 6.44246 	0.743854 	0 6.3887 	0.699089 	0 6.31694 	0.642265 	0 6.31477 	0.64017 	0 6.3132 	0.638345 	0 6.31172 	0.636558 	0 6.31023 	0.63477 	0 6.30868 	0.632931 	0 6.27132 	0.597061 	0 6.23151 	0.560862 	0 6.18922 	0.524331 	0 6.1444 	0.487462 	0 6.10943 	0.456251 	0 6.07602 	0.420969 	0 6.04571 	0.390994 	0 6.01701 	0.36455 	0 5.99443 	0.339599 	0 5.97316 	0.315194 	0 5.95246 	0.289061 	0 5.92972 	0.262717 	0 5.91348 	0.241656 	0 5.9034 	0.222652 	0 5.89182 	0.203584 	0 5.87917 	0.183517 	0 5.86498 	0.16335 	0 5.85627 	0.143786 	0 5.85337 	0.127397 	0 5.84919 	0.110981 	0 5.84297 	0.0943464 	0 5.8355 	0.0776699 	0 5.83341 	0.0589674 	0 5.83631 	0.0430932 	0 5.838 	0.0272194 	0 5.83717 	0.0119215 	0 5.83535 	-0.00344541 	0 5.83921 	-0.0225472 	0 5.84732 	-0.040039 	0 5.85425 	-0.0574769 	0 5.85861 	-0.0735441 	0 5.86185 	-0.0895855 	0 5.87122 	-0.110974 	0 5.88468 	-0.132512 	0 5.89666 	-0.153979 	0 5.90651 	-0.173346 	0 5.91508 	-0.192644 	0 5.9294 	-0.218103 	0 5.94828 	-0.24706 	0 5.96528 	-0.275876 	0 5.98122 	-0.302109 	0 5.99552 	-0.328193 	0 6.01456 	-0.359807 	0 6.03866 	-0.400972 	0 6.06026 	-0.441894 	0 6.0826 	-0.480358 	0 6.10481 	-0.520982 	0 6.13011 	-0.567639 	0 6.15459 	-0.619712 	0 6.17872 	-0.679524 	0 6.2061 	-0.73852 	0 6.23745 	-0.811913 	0 6.26492 	-0.88477 	0 6.28857 	-0.957089 	0 6.30869 	-1.0298 	0 6.3087 	-1.02985 	0 6.30872 	-1.0299 	0 6.30873 	-1.02996 	0 6.30875 	-1.03003 	0 6.30876 	-1.03009 	0 6.33255 	-1.12727 	0 6.3511 	-1.22235 	0 6.36451 	-1.31537 	0 6.37527 	-1.41406 	0 6.38855 	-1.53826 	0 6.40635 	-1.66401 	0 6.41791 	-1.78766 	0 6.40578 	-1.93018 	2.62087e-20 6.36942 	-2.07914 	5.37279e-20 6.31927 	-2.23392 	8.12302e-20 6.31106 	-2.28437 	2.33879e-20 6.29888 	-2.3317 	5.84047e-21 6.28252 	-2.37571 	3.12667e-20 6.2656 	-2.41947 	5.73132e-20 6.25126 	-2.45516 	7.91892e-20 6.22487 	-2.55102 	1.7896e-19 6.19652 	-2.64632 	2.82893e-19 6.16624 	-2.74104 	3.90961e-19 6.12009 	-2.82219 	2.7433e-19 6.06354 	-2.90254 	6.24877e-20 5.98358 	-3.0222 	4.92712e-20 5.89841 	-3.13889 	3.61858e-20 5.80154 	-3.23674 	8.57015e-21 5.70028 	-3.33264 	-1.80459e-20 5.62538 	-3.39918 	-3.61793e-20 5.61624 	-3.40849 	-3.59714e-20 5.60706 	-3.41778 	-3.57485e-20 5.5978 	-3.42643 	-3.68991e-20 5.58842 	-3.43338 	-4.17054e-20 5.57889 	-3.44041 	-4.65575e-20 5.45899 	-3.53662 	-2.82891e-20 5.33378 	-3.63087 	-9.44784e-21 5.20774 	-3.70782 	1.26334e-22 5.08151 	-3.76671 	-1.84773e-22 4.93254 	-3.83201 	7.54727e-23 4.93228 	-3.83215 	4.31893e-23 4.93202 	-3.83229 	1.09054e-23 4.93178 	-3.83239 	1.91448e-23 4.93156 	-3.83247 	4.80556e-23 4.93133 	-3.83255 	7.69759e-23 4.80562 	-3.88189 	1.1303e-21 4.67583 	-3.92963 	2.48803e-21 4.54891 	-3.96612 	4.21589e-21 4.43128 	-3.98322 	6.34093e-21 4.33596 	-3.99559 	8.2116e-21 4.30562 	-4.00325 	1.33587e-20 4.27506 	-4.01083 	1.85439e-20 4.24976 	-4.01255 	9.22267e-21 4.22458 	-4.01391 	-8.28015e-22 4.19828 	-4.01526 	-1.12488e-20 4.12447 	-4.02257 	-6.36184e-20 4.04949 	-4.02935 	-1.1562e-19 3.97347 	-4.03546 	-1.65808e-19 3.9093 	-4.02993 	-1.01568e-19 3.85049 	-4.02455 	-4.30497e-20 3.77291 	-4.0267 	4.17574e-21 3.69543 	-4.02595 	4.19957e-20 3.62354 	-4.01383 	3.41974e-20 3.55057 	-4.00124 	2.66698e-20 3.46852 	-3.98675 	1.86422e-20 3.46519 	-3.98633 	1.92669e-20 3.46185 	-3.98591 	1.98918e-20 3.45852 	-3.9855 	2.05169e-20 3.45537 	-3.98477 	2.10414e-20 3.45231 	-3.98394 	2.15246e-20 3.38418 	-3.97191 	1.41261e-20 3.31398 	-3.95776 	7.41798e-21 3.24258 	-3.9429 	7.04456e-22 3.1708 	-3.91584 	6.16812e-21 3.10316 	-3.88907 	1.23514e-20 3.06107 	-3.87906 	3.47258e-20 3.01867 	-3.86767 	5.06272e-20 2.97706 	-3.8487 	2.33619e-20 2.93506 	-3.82951 	-3.84641e-21 2.88985 	-3.80881 	-3.27768e-20 2.87172 	-3.80225 	-3.88806e-20 2.85352 	-3.79565 	-4.49865e-20 2.83523 	-3.78899 	-5.10947e-20 2.81704 	-3.77993 	-5.72883e-20 2.79911 	-3.77041 	-6.34005e-20 2.74572 	-3.74935 	-1.07126e-19 2.69149 	-3.72779 	-1.50971e-19 2.63669 	-3.69715 	-1.46194e-19 2.58227 	-3.65977 	-8.81877e-20 2.52975 	-3.62366 	-3.27093e-20 2.51282 	-3.61474 	2.0629e-21 2.49585 	-3.60561 	3.52327e-20 2.47997 	-3.59321 	2.99782e-20 2.46403 	-3.58077 	2.47589e-20 2.44761 	-3.56796 	1.94394e-20 2.41707 	-3.54887 	5.65522e-20 2.38628 	-3.5296 	9.35856e-20 2.35523 	-3.51012 	1.30537e-19 2.32523 	-3.48561 	1.03448e-19 2.29583 	-3.46117 	7.22997e-20 2.2589 	-3.43548 	4.2449e-20 2.22152 	-3.40946 	1.2566e-20 2.18695 	-3.37661 	-2.90086e-21 2.15214 	-3.3434 	-1.81064e-20 2.11501 	-3.30807 	-3.42113e-20 2.1113 	-3.30521 	-3.17886e-20 2.10759 	-3.30235 	-2.93688e-20 2.10388 	-3.29949 	-2.69517e-20 2.10038 	-3.29606 	-3.40001e-20 2.09689 	-3.29262 	-4.13453e-20 2.06018 	-3.26033 	-1.64587e-19 2.02445 	-3.226 	-2.56576e-19 1.98939 	-3.18989 	-2.99652e-19 1.95716 	-3.14901 	-1.93317e-19 1.9254 	-3.10878 	-8.89839e-20 1.9168 	-3.0991 	-7.78925e-20 1.90817 	-3.0894 	-6.67968e-20 1.90084 	-3.07855 	-5.65251e-20 1.8938 	-3.06744 	-4.64441e-20 1.88671 	-3.05625 	-3.62874e-20 1.86478 	-3.03087 	-1.1749e-20 1.84274 	-3.00539 	1.28107e-20 1.82115 	-2.97923 	2.99858e-20 1.80212 	-2.95026 	1.21512e-20 1.78323 	-2.92151 	-5.51983e-21 1.76983 	-2.90255 	-2.11379e-20 1.75641 	-2.88356 	-3.67442e-20 1.74517 	-2.86327 	-1.81126e-20 1.73487 	-2.84247 	1.47186e-20 1.72457 	-2.82163 	4.76562e-20 1.71224 	-2.80444 	1.21526e-20 1.6999 	-2.78722 	-2.33008e-20 1.68818 	-2.76953 	-3.49184e-20 1.6781 	-2.75068 	1.29606e-20 1.66806 	-2.73189 	6.07082e-20 1.65473 	-2.70768 	1.97468e-19 1.64143 	-2.68351 	3.34166e-19 1.63051 	-2.65856 	2.9636e-19 1.62136 	-2.63313 	1.33611e-19 1.61244 	-2.60809 	-2.78286e-20 1.60464 	-2.59473 	-5.73823e-20 1.59684 	-2.58137 	-8.6944e-20 1.58985 	-2.56767 	-8.97892e-20 1.58397 	-2.55351 	-5.62896e-20 1.57811 	-2.53936 	-2.27634e-20 1.56812 	-2.51484 	-2.46251e-20 1.55824 	-2.49042 	-2.65267e-20 1.5503 	-2.46588 	-1.93331e-20 1.54486 	-2.44118 	-5.03422e-22 1.5398 	-2.41738 	1.77453e-20 1.53315 	-2.40289 	2.97195e-20 1.52653 	-2.38842 	4.16891e-20 1.52122 	-2.37373 	4.57206e-20 1.51687 	-2.35891 	4.40971e-20 1.51255 	-2.34404 	4.24437e-20 1.50731 	-2.3243 	2.55666e-20 1.5022 	-2.30468 	8.66391e-21 1.49817 	-2.28527 	-3.13053e-21 1.49682 	-2.26622 	-1.11885e-21 1.49572 	-2.24806 	8.13705e-22 1.48875 	-2.22755 	7.62558e-20 1.48189 	-2.20713 	1.51925e-19 1.47762 	-2.18687 	1.25788e-19 1.47429 	-2.16677 	6.7807e-20 1.47107 	-2.14648 	8.99856e-21 1.46986 	-2.13594 	-2.33619e-20 1.46872 	-2.12545 	-5.56788e-20 1.46783 	-2.11513 	-8.20039e-20 1.46936 	-2.10624 	-3.64857e-20 1.47093 	-2.09767 	7.88487e-21 1.4638 	-2.06746 	4.60802e-21 1.45697 	-2.03753 	1.31339e-21 1.4562 	-2.01096 	-2.3459e-20 1.45677 	-1.98526 	-5.17353e-20 1.45938 	-1.96229 	-7.48665e-20 1.4589 	-1.96032 	-6.85263e-20 1.45843 	-1.95836 	-6.22405e-20 1.45838 	-1.95661 	-6.69863e-20 1.45833 	-1.95486 	-7.17299e-20 1.45829 	-1.9531 	-7.64838e-20 1.45641 	-1.92818 	-2.09508e-19 1.45491 	-1.90355 	-3.41798e-19 1.45413 	-1.87951 	-4.4656e-19 1.45838 	-1.85929 	-1.91179e-19 1.46275 	-1.84093 	4.70872e-20 1.4606 	-1.82602 	1.11175e-19 1.45857 	-1.81121 	1.75047e-19 1.45949 	-1.79853 	1.42341e-19 1.46053 	-1.78595 	1.09736e-19 1.46174 	-1.77312 	7.63109e-20 1.46266 	-1.76356 	6.73853e-20 1.46367 	-1.75406 	5.84816e-20 1.46476 	-1.74463 	4.96002e-20 1.46737 	-1.73645 	5.16727e-20 1.47004 	-1.72868 	5.41885e-20 1.46952 	-1.70542 	2.94985e-20 1.46936 	-1.68244 	4.74671e-21 1.47227 	-1.66188 	2.02348e-20 1.47687 	-1.64242 	4.53207e-20 1.48282 	-1.62531 	6.85514e-20 1.4828 	-1.62124 	6.74329e-20 1.48288 	-1.61724 	6.75969e-20 1.48347 	-1.61362 	7.51553e-20 1.48407 	-1.61001 	8.27116e-20 1.4847 	-1.60637 	9.03562e-20 1.4874 	-1.59063 	1.39732e-19 1.49038 	-1.57509 	1.88986e-19 1.49362 	-1.55975 	2.38114e-19 1.4988 	-1.54626 	1.68533e-19 1.50421 	-1.53408 	8.22535e-20 1.50586 	-1.51458 	1.55615e-19 1.50836 	-1.49582 	2.03717e-19 1.51298 	-1.479 	1.61865e-19 1.51795 	-1.46244 	1.20544e-19 1.52365 	-1.44494 	7.67588e-20 1.52368 	-1.44488 	7.6517e-20 1.5237 	-1.44481 	7.62753e-20 1.52373 	-1.44475 	7.60335e-20 1.52375 	-1.44469 	7.63549e-20 1.52378 	-1.44463 	7.69229e-20 1.52819 	-1.4276 	1.26556e-19 1.53299 	-1.41086 	1.74598e-19 1.53817 	-1.39437 	2.2225e-19 1.54494 	-1.37965 	1.84245e-19 1.55204 	-1.36673 	1.17117e-19 1.55537 	-1.34912 	2.03144e-19 1.55958 	-1.33241 	2.39568e-19 1.56522 	-1.31727 	1.74825e-19 1.5712 	-1.30236 	1.10297e-19 1.57756 	-1.28882 	3.78305e-20 1.57779 	-1.28783 	3.75778e-20 1.57806 	-1.28688 	3.67442e-20 1.57838 	-1.28599 	3.5178e-20 1.5787 	-1.2851 	3.36115e-20 1.57903 	-1.28421 	3.20359e-20 1.58425 	-1.27027 	-1.34671e-20 1.58976 	-1.25652 	-5.8891e-20 1.59558 	-1.24297 	-1.04233e-19 1.60228 	-1.23063 	-8.93442e-20 1.60934 	-1.2199 	-3.00526e-20 1.61379 	-1.20439 	-7.54374e-20 1.61855 	-1.18907 	-1.21236e-19 1.62462 	-1.17569 	-1.03801e-19 1.63192 	-1.16304 	-6.09349e-20 1.63995 	-1.15166 	3.29689e-22 1.64223 	-1.14483 	2.88033e-20 1.64485 	-1.1385 	2.8292e-20 1.64771 	-1.13254 	7.12436e-21 1.65064 	-1.12662 	-1.39924e-20 1.65377 	-1.12044 	-3.61108e-20 1.65741 	-1.11361 	-6.80332e-20 1.66114 	-1.10684 	-9.9844e-20 1.66496 	-1.10012 	-1.31543e-19 1.669 	-1.09383 	-1.31102e-19 1.67324 	-1.08835 	-7.98811e-20 1.67839 	-1.07461 	-1.11918e-19 1.68441 	-1.06136 	-1.36123e-19 1.69174 	-1.04895 	-1.45556e-19 1.69993 	-1.03834 	-1.35227e-19 1.70802 	-1.02837 	-1.25239e-19 1.71379 	-1.01487 	-2.75539e-19 1.72006 	-1.00217 	-3.50302e-19 1.72694 	-0.99073 	-2.96231e-19 1.73409 	-0.97945 	-2.42667e-19 1.74239 	-0.969374 	-1.16072e-19 1.74449 	-0.965035 	-8.2535e-20 1.74674 	-0.961147 	-8.47512e-20 1.74905 	-0.957394 	-9.66211e-20 1.75139 	-0.953657 	-1.08443e-19 1.75386 	-0.949777 	-1.20724e-19 1.75872 	-0.942421 	-1.24333e-19 1.7637 	-0.935131 	-1.27915e-19 1.7688 	-0.927908 	-1.3147e-19 1.77404 	-0.920974 	-1.2966e-19 1.77938 	-0.915208 	-1.05269e-19 1.78543 	-0.903276 	-1.32879e-19 1.79249 	-0.891919 	-1.44786e-19 1.80042 	-0.881066 	-1.43559e-19 1.80874 	-0.871999 	-1.02967e-19 1.81702 	-0.863468 	-6.09421e-20 1.82364 	-0.851777 	-1.64901e-19 1.83051 	-0.840251 	-2.66961e-19 1.83767 	-0.830559 	-2.25646e-19 1.84589 	-0.821453 	-1.27943e-19 1.85457 	-0.813007 	4.39953e-23 1.86118 	-0.802453 	1.42259e-22 1.86796 	-0.793531 	1.07652e-22 1.87492 	-0.784751 	6.90226e-23 1.88209 	-0.776073 	2.99648e-23 1.89046 	-0.766305 	-1.49936e-23 1.89084 	-0.765887 	7.12549e-22 1.89122 	-0.765469 	1.43961e-21 1.8916 	-0.765052 	2.1662e-21 1.89199 	-0.764634 	2.8923e-21 1.89236 	-0.764299 	4.2412e-22 1.89984 	-0.754845 	-2.52897e-20 1.90763 	-0.745561 	-4.71589e-20 1.91564 	-0.736389 	-6.88497e-20 1.92388 	-0.727339 	-8.98833e-20 1.93178 	-0.720352 	-3.11993e-20 1.93867 	-0.710395 	-2.11288e-20 1.94624 	-0.700879 	-1.39277e-20 1.95462 	-0.691895 	-1.04144e-20 1.96279 	-0.684623 	-1.59851e-20 1.97093 	-0.677756 	-2.24502e-20 1.97824 	-0.668049 	5.39409e-20 1.98577 	-0.658444 	1.30444e-19 1.9932 	-0.650356 	1.32358e-19 2.00152 	-0.64341 	6.5722e-20 2.00986 	-0.636667 	1.63219e-22 2.01757 	-0.627215 	9.7064e-23 2.0251 	-0.618838 	-1.11821e-20 2.03252 	-0.611297 	-3.10277e-20 2.04012 	-0.603835 	-5.08495e-20 2.04859 	-0.597196 	-6.38812e-20 2.0555 	-0.589492 	-1.06446e-19 2.06202 	-0.582983 	-1.10001e-19 2.06869 	-0.576532 	-1.13615e-19 2.07549 	-0.570137 	-1.17289e-19 2.08345 	-0.562858 	-1.21576e-19 2.08421 	-0.562191 	-1.22763e-19 2.08498 	-0.561525 	-1.23949e-19 2.08575 	-0.560859 	-1.25135e-19 2.08651 	-0.560194 	-1.2632e-19 2.08722 	-0.559654 	-1.22302e-19 2.09468 	-0.552354 	-9.43269e-20 2.10237 	-0.545196 	-6.50837e-20 2.11024 	-0.538107 	-3.58784e-20 2.11828 	-0.531088 	-6.71115e-21 2.12555 	-0.525597 	1.79219e-22 2.1327 	-0.517832 	6.74857e-20 2.14053 	-0.51085 	8.63981e-20 2.14854 	-0.503958 	1.03536e-19 2.15619 	-0.497881 	8.43327e-20 2.16321 	-0.492962 	1.49056e-20 2.17059 	-0.485439 	-5.50339e-20 2.1782 	-0.478066 	-1.18736e-19 2.18627 	-0.471425 	-1.34999e-19 2.19319 	-0.46656 	-6.72694e-20 2.20017 	-0.461779 	-7.2497e-23 2.20775 	-0.454499 	-3.95957e-23 2.21551 	-0.447277 	-6.86648e-24 2.22263 	-0.441413 	0 2.22947 	-0.436696 	0 2.23638 	-0.432053 	0 2.24413 	-0.425014 	0 2.2518 	-0.418296 	0 2.2583 	-0.41306 	0 2.265 	-0.408285 	-1.01499e-20 2.2718 	-0.403779 	-2.51716e-20 2.27969 	-0.396981 	-6.2361e-21 2.2866 	-0.391343 	-6.35179e-21 2.2931 	-0.386293 	-1.58177e-20 2.29972 	-0.381307 	-2.67424e-20 2.30639 	-0.37694 	-6.64837e-20 2.3141 	-0.370626 	-2.84747e-20 2.32045 	-0.365725 	-3.02641e-20 2.32692 	-0.360857 	-3.20253e-20 2.33351 	-0.356022 	-3.37586e-20 2.3401 	-0.351505 	-4.64701e-20 2.34634 	-0.346642 	-3.69125e-20 2.35195 	-0.342426 	-3.83634e-20 2.35766 	-0.338234 	-3.97928e-20 2.36345 	-0.334067 	-4.12009e-20 2.3703 	-0.329246 	-4.28145e-20 2.37083 	-0.328891 	-4.26964e-20 2.37135 	-0.328536 	-4.25785e-20 2.37187 	-0.328181 	-4.24607e-20 2.37239 	-0.327826 	-4.23431e-20 2.37285 	-0.327526 	-4.25203e-20 2.37901 	-0.322936 	-4.92092e-20 2.38527 	-0.3184 	-5.37583e-20 2.39165 	-0.313892 	-5.82304e-20 2.39813 	-0.309411 	-6.26261e-20 2.40377 	-0.305684 	-3.89665e-20 2.4101 	-0.300968 	-7.51616e-20 2.41626 	-0.296608 	-8.72946e-20 2.42253 	-0.292273 	-9.93689e-20 2.4289 	-0.287963 	-1.11385e-19 2.43354 	-0.284976 	-7.13061e-20 2.44012 	-0.280192 	-1.18583e-19 2.44616 	-0.276005 	-1.21109e-19 2.4523 	-0.271841 	-1.23589e-19 2.45819 	-0.267936 	-1.19e-19 2.46216 	-0.265372 	-7.53457e-20 2.46877 	-0.260755 	-1.17874e-19 2.47494 	-0.25655 	-1.28012e-19 2.48094 	-0.252555 	-1.22407e-19 2.48588 	-0.249293 	-9.48e-20 2.48961 	-0.246834 	-4.3199e-20 2.4962 	-0.242421 	4.31575e-20 2.50259 	-0.238201 	1.03853e-19 2.50843 	-0.234371 	1.09349e-19 2.51241 	-0.231682 	5.03682e-20 2.5159 	-0.229327 	-2.66968e-20 2.52244 	-0.225113 	-1.75934e-20 2.52908 	-0.220917 	-8.49996e-21 2.5346 	-0.217333 	8.66907e-21 2.53778 	-0.215066 	2.59572e-20 2.54101 	-0.212811 	4.32203e-20 2.54749 	-0.208792 	-4.33232e-20 2.55407 	-0.204791 	-1.29879e-19 2.55906 	-0.201569 	-1.41244e-19 2.56198 	-0.199402 	-7.10833e-20 2.56495 	-0.197246 	-1.021e-21 2.57135 	-0.193419 	-1.07419e-22 2.57786 	-0.189606 	7.8537e-22 2.58236 	-0.186721 	-1.56708e-20 2.58502 	-0.184652 	-4.9417e-20 2.58773 	-0.182593 	-8.31383e-20 2.59404 	-0.178953 	-4.7683e-20 2.60045 	-0.175326 	-1.22434e-20 2.60452 	-0.172749 	-8.54655e-21 2.60691 	-0.170776 	-2.593e-20 2.60935 	-0.168812 	-4.32977e-20 2.61557 	-0.165354 	-2.59873e-20 2.62187 	-0.161911 	-8.70959e-21 2.62548 	-0.159633 	-9.45401e-21 2.62767 	-0.157736 	-2.60534e-20 2.62984 	-0.155865 	-4.33786e-20 2.63595 	-0.152585 	-1.64885e-19 2.64159 	-0.14953 	-2.61793e-19 2.64504 	-0.147371 	-2.57102e-19 2.64731 	-0.145492 	-1.64746e-19 2.64921 	-0.143711 	-4.33592e-20 2.6552 	-0.140604 	-2.59813e-20 2.66021 	-0.137897 	-8.62104e-21 2.66349 	-0.135853 	8.70881e-21 2.66584 	-0.134006 	2.13075e-20 2.66748 	-0.132314 	3.02495e-20 2.67335 	-0.129375 	9.13174e-20 2.67774 	-0.126977 	1.18692e-19 2.68085 	-0.125045 	1.17018e-19 2.68329 	-0.123243 	9.21093e-20 2.68467 	-0.121636 	3.16735e-20 2.69041 	-0.118861 	2.32316e-20 2.69421 	-0.116739 	1.48059e-20 2.69716 	-0.114915 	6.38527e-21 2.69969 	-0.113166 	0 2.70081 	-0.111643 	0 2.70642 	-0.109027 	0 2.70967 	-0.107148 	1.47187e-20 2.71245 	-0.105429 	3.25491e-20 2.71507 	-0.103741 	5.03642e-20 2.71594 	-0.1023 	6.8106e-20 2.72141 	-0.0998369 	1.90102e-19 2.72413 	-0.0981743 	1.93622e-19 2.72674 	-0.096556 	1.91095e-19 2.72941 	-0.0949409 	1.88618e-19 2.73008 	-0.0935735 	7.02128e-20 2.73522 	-0.0913106 	5.31988e-20 2.73763 	-0.0897869 	3.62379e-20 2.74009 	-0.088266 	1.92689e-20 2.74258 	-0.0867479 	2.2917e-21 2.74326 	-0.0854319 	1.46997e-20 2.74795 	-0.0833858 	-4.34149e-24 2.75021 	-0.0819564 	-2.98873e-23 2.75251 	-0.0805294 	-5.5423e-23 2.75484 	-0.0791048 	-8.09484e-23 2.75553 	-0.0778444 	6.38978e-21 2.75979 	-0.0759933 	-5.08117e-20 2.7619 	-0.0746546 	-4.95125e-20 2.76404 	-0.0733179 	-4.82408e-20 2.76622 	-0.0719833 	-4.69965e-20 2.76691 	-0.0707816 	-5.64437e-21 2.77078 	-0.069106 	8.55945e-23 2.77273 	-0.0678543 	6.04885e-23 2.77473 	-0.0666044 	3.53726e-23 2.77675 	-0.0653563 	1.02471e-23 2.77744 	-0.0642153 	0 2.78094 	-0.0626977 	1.11891e-20 2.78275 	-0.0615294 	3.75123e-20 2.7846 	-0.0603627 	6.38268e-20 2.78648 	-0.0591976 	9.01326e-20 2.78716 	-0.0581186 	1.07494e-19 2.79032 	-0.0567432 	1.73102e-19 2.792 	-0.0556549 	1.72023e-19 2.79371 	-0.0545678 	1.70973e-19 2.79544 	-0.0534821 	1.6995e-19 2.7961 	-0.0524655 	1.02483e-19 2.79896 	-0.0512183 	8.75799e-20 2.8005 	-0.0502064 	5.31465e-20 2.80207 	-0.0491956 	1.87077e-20 2.80368 	-0.0481858 	-1.57365e-20 2.80431 	-0.0472314 	-4.66903e-20 2.80689 	-0.0460999 	-9.02143e-20 2.8083 	-0.0451609 	-8.90064e-20 2.80975 	-0.0442227 	-8.78322e-20 2.81122 	-0.0432855 	-8.66919e-20 2.81183 	-0.0423926 	-3.70495e-20 2.81414 	-0.0413657 	-4.95375e-20 2.81544 	-0.040496 	-3.17169e-20 2.81676 	-0.0396272 	-1.39141e-20 2.81811 	-0.0387591 	3.8708e-21 2.81868 	-0.0379264 	4.31038e-20 2.82076 	-0.0369941 	4.98612e-20 2.82194 	-0.0361905 	6.73321e-20 2.82315 	-0.0353876 	8.47948e-20 2.82438 	-0.0345853 	1.02249e-19 2.82491 	-0.0338114 	1.22065e-19 2.82679 	-0.0329648 	1.4623e-19 2.82786 	-0.0322239 	1.37008e-19 2.82895 	-0.0314835 	1.27806e-19 2.83007 	-0.0307437 	1.18626e-19 2.83056 	-0.0300267 	8.16878e-20 2.83224 	-0.0292581 	5.80644e-20 2.83321 	-0.0285765 	3.23163e-20 2.83421 	-0.0278954 	6.56636e-21 2.83522 	-0.0272148 	-1.91854e-20 2.83565 	-0.0265527 	-4.10461e-20 2.83717 	-0.0258549 	-5.61679e-20 2.83805 	-0.0252295 	-3.83939e-20 2.83894 	-0.0246045 	-2.06461e-20 2.83985 	-0.0239799 	-2.92428e-21 2.84023 	-0.0233704 	4.84833e-20 2.84161 	-0.0227372 	1.02326e-19 2.84239 	-0.0221649 	1.10006e-19 2.8432 	-0.0215928 	1.1773e-19 2.84401 	-0.021021 	1.25497e-19 2.84433 	-0.0204619 	8.86218e-20 2.84558 	-0.0198877 	7.1798e-20 2.84628 	-0.0193652 	6.32544e-20 2.847 	-0.018843 	5.47066e-20 2.84773 	-0.0183211 	4.61547e-20 2.84798 	-0.0178097 	3.76054e-20 2.84913 	-0.0172895 	1.44045e-20 2.84975 	-0.016814 	1.47521e-20 2.85038 	-0.0163388 	1.50772e-20 2.85103 	-0.0158636 	1.53796e-20 2.85122 	-0.0153976 	4.14741e-20 2.85227 	-0.