# vtk DataFile Version 2.0
track0
ASCII
DATASET POLYDATA
POINTS 12278 float
-0.0205 0.001 1e-05
-0.02052 0.000999216 1e-05
-0.02054 0.000998592 1e-05
-0.02056 0.000998126 1e-05
-0.02058 0.000997818 1e-05
-0.0206 0.000997665 1e-05
-0.0205 0.00367778 1e-05
-0.02052 0.00367703 1e-05
-0.02054 0.00367643 1e-05
-0.02056 0.00367599 1e-05
-0.02058 0.00367569 1e-05
-0.0206 0.00367554 1e-05
-0.0205 0.00635556 1e-05
-0.02052 0.00635527 1e-05
-0.02054 0.00635505 1e-05
-0.02056 0.00635488 1e-05
-0.02058 0.00635476 1e-05
-0.0206 0.00635471 1e-05
-0.0205 0.00903333 1e-05
-0.02052 0.00903311 1e-05
-0.02054 0.00903293 1e-05
-0.02056 0.0090328 1e-05
-0.02058 0.00903271 1e-05
-0.0206 0.00903266 1e-05
-0.0205 0.0117111 1e-05
-0.02052 0.0117111 1e-05
-0.02054 0.011711 1e-05
-0.02056 0.011711 1e-05
-0.02058 0.011711 1e-05
-0.0206 0.011711 1e-05
-0.0205 0.0143889 1e-05
-0.02052 0.014389 1e-05
-0.02054 0.014389 1e-05
-0.02056 0.0143891 1e-05
-0.02058 0.0143891 1e-05
-0.0206 0.0143891 1e-05
-0.0205 0.0170667 1e-05
-0.02052 0.017067 1e-05
-0.02054 0.0170672 1e-05
-0.02056 0.0170674 1e-05
-0.02058 0.0170675 1e-05
-0.0206 0.0170676 1e-05
-0.0205 0.0197444 1e-05
-0.02052 0.019745 1e-05
-0.02054 0.0197454 1e-05
-0.02056 0.0197457 1e-05
-0.02058 0.0197459 1e-05
-0.0206 0.019746 1e-05
-0.0205 0.0224222 1e-05
-0.02052 0.022423 1e-05
-0.02054 0.0224236 1e-05
-0.02056 0.0224241 1e-05
-0.02058 0.0224244 1e-05
-0.0206 0.0224245 1e-05
-0.0205 0.0251 1e-05
-0.02052 0.0251003 1e-05
-0.02054 0.0251005 1e-05
-0.02056 0.0251007 1e-05
-0.02058 0.0251008 1e-05
-0.0206 0.0251008 1e-05
-0.0205 0.001 1e-05
-0.0203632 0.00100536 1e-05
-0.0202266 0.00101331 1e-05
-0.0200901 0.00102296 1e-05
-0.0200427 0.00102682 1e-05
-0.0198376 0.00104418 1e-05
-0.0196338 0.00107322 1e-05
-0.0194327 0.00111734 1e-05
-0.0192368 0.00118024 1e-05
-0.0190172 0.00124951 1e-05
-0.0189002 0.00128348 1e-05
-0.0187827 0.00131598 1e-05
-0.0186649 0.001347 1e-05
-0.0185469 0.001377 1e-05
-0.0183807 0.00141936 1e-05
-0.0182041 0.00146458 1e-05
-0.0180267 0.00150692 1e-05
-0.0178487 0.0015464 1e-05
-0.0176703 0.00158389 1e-05
-0.0174976 0.00161991 1e-05
-0.0172846 0.00166394 1e-05
-0.0170715 0.00170741 1e-05
-0.0168583 0.00175029 1e-05
-0.0166449 0.00179219 1e-05
-0.0163945 0.00184007 1e-05
-0.0163234 0.00185324 1e-05
-0.0162522 0.00186629 1e-05
-0.016181 0.00187921 1e-05
-0.0161097 0.00189201 1e-05
-0.0160387 0.0019046 1e-05
-0.0157586 0.0019535 1e-05
-0.0154779 0.00199931 1e-05
-0.0151968 0.00204225 1e-05
-0.0149154 0.00208283 1e-05
-0.0146381 0.00212134 1e-05
-0.0143838 0.00215527 1e-05
-0.0141293 0.00218766 1e-05
-0.0138747 0.00221855 1e-05
-0.0136198 0.00224797 1e-05
-0.0132934 0.00228369 1e-05
-0.0132791 0.00228515 1e-05
-0.0132648 0.0022866 1e-05
-0.0132504 0.00228805 1e-05
-0.0132361 0.0022895 1e-05
-0.0132214 0.00229098 1e-05
-0.0129776 0.00231543 1e-05
-0.0127337 0.00233865 1e-05
-0.0124897 0.00236061 1e-05
-0.0122456 0.00238129 1e-05
-0.0120025 0.00240058 1e-05
-0.0117547 0.00241909 1e-05
-0.0115067 0.00243627 1e-05
-0.0112587 0.00245231 1e-05
-0.0110106 0.00246734 1e-05
-0.0107632 0.00248136 1e-05
-0.0105252 0.00249391 1e-05
-0.0102872 0.00250547 1e-05
-0.0100491 0.00251602 1e-05
-0.00981105 0.00252575 1e-05
-0.00957337 0.00253471 1e-05
-0.00934491 0.00254261 1e-05
-0.00911643 0.00254974 1e-05
-0.00888792 0.0025561 1e-05
-0.0086594 0.00256171 1e-05
-0.00843108 0.00256668 1e-05
-0.00821175 0.00257084 1e-05
-0.00799241 0.00257439 1e-05
-0.00777306 0.00257731 1e-05
-0.0075537 0.00257952 1e-05
-0.00733443 0.00258114 1e-05
-0.00712387 0.00258212 1e-05
-0.0069133 0.00258255 1e-05
-0.00670273 0.00258243 1e-05
-0.00649216 0.00258162 1e-05
-0.0062816 0.00258017 1e-05
-0.00607944 0.00257819 1e-05
-0.0058773 0.00257565 1e-05
-0.00567516 0.00257256 1e-05
-0.00547303 0.00256874 1e-05
-0.00527083 0.00256419 1e-05
-0.00507675 0.00255912 1e-05
-0.00488269 0.00255343 1e-05
-0.00468865 0.00254711 1e-05
-0.00449464 0.00253997 1e-05
-0.00430044 0.0025319 1e-05
-0.00411412 0.00252329 1e-05
-0.00392784 0.00251388 1e-05
-0.00374159 0.00250368 1e-05
-0.0035554 0.00249254 1e-05
-0.00336883 0.00248015 1e-05
-0.00318995 0.00246711 1e-05
-0.00301115 0.00245299 1e-05
-0.00283245 0.00243774 1e-05
-0.00265386 0.0024212 1e-05
-0.00247443 0.00240314 1e-05
-0.0023027 0.00238425 1e-05
-0.00213114 0.00236383 1e-05
-0.00195982 0.00234153 1e-05
-0.00178875 0.00231737 1e-05
-0.00161577 0.00229105 1e-05
-0.00161569 0.00229103 1e-05
-0.0016156 0.00229102 1e-05
-0.00161551 0.00229101 1e-05
-0.00161543 0.00229099 1e-05
-0.00161534 0.00229098 1e-05
-0.00145056 0.00226407 1e-05
-0.00128617 0.00223481 1e-05
-0.00112222 0.00220325 1e-05
-0.000958705 0.00216946 1e-05
-0.000791418 0.00213236 1e-05
-0.000633135 0.00209424 1e-05
-0.000475556 0.00205331 1e-05
-0.000318719 0.00200963 1e-05
-0.000162835 0.00196266 1e-05
0 0.0019095 1e-05
3.73323e-05 0.00189631 1e-05
7.45646e-05 0.00188283 1e-05
0.000111698 0.00186908 1e-05
0.000148735 0.00185508 1e-05
0.000179039 0.00184338 1e-05
0.000248909 0.00181593 1e-05
0.000318368 0.00178747 1e-05
0.000387401 0.00175799 1e-05
0.000455994 0.0017275 1e-05
0.000528387 0.00169411 1e-05
0.000634886 0.00164313 1e-05
0.000740278 0.0015899 1e-05
0.00084451 0.00153443 1e-05
0.00094762 0.00147691 1e-05
0.00101984 0.00143468 1e-05
0.00102805 0.00142972 1e-05
0.00103625 0.00142475 1e-05
0.00104444 0.00141976 1e-05
0.00105262 0.00141475 1e-05
0.00106088 0.00140967 1e-05
0.00116821 0.00134348 1e-05
0.00127404 0.00127492 1e-05
0.00137827 0.00120397 1e-05
0.00148099 0.00113083 1e-05
0.00159664 0.00104511 1e-05
0.00159681 0.00104497 1e-05
0.00159699 0.00104483 1e-05
0.00159717 0.0010447 1e-05
0.00159734 0.00104456 1e-05
0.00159752 0.00104442 1e-05
0.00169217 0.000970863 1e-05
0.00178542 0.000895537 1e-05
0.00187719 0.000818413 1e-05
0.00196754 0.000739635 1e-05
0.00203793 0.000676366 1e-05
0.00205801 0.000657863 1e-05
0.002078 0.00063927 1e-05
0.00209792 0.000620587 1e-05
0.00211777 0.000601841 1e-05
0.00213833 0.000582311 1e-05
0.00219144 0.000531508 1e-05
0.00224406 0.000480188 1e-05
0.00229617 0.000428343 1e-05
0.00234774 0.000375968 1e-05
0.00239402 0.000328255 1e-05
0.00245189 0.000267776 1e-05
0.00250912 0.000206697 1e-05
0.00256572 0.000145035 1e-05
0.0026218 8.29063e-05 1e-05
0.00268334 1.35602e-05 1e-05
0.0026857 1.08482e-05 1e-05
0.00268806 8.13512e-06 1e-05
0.00269041 5.42108e-06 1e-05
0.00269277 2.70604e-06 1e-05
0.00269512 0 1e-05
0.00275901 -7.37367e-05 1e-05
0.00282229 -0.000148005 1e-05
0.00288493 -0.000222813 1e-05
0.0029469 -0.000298173 1e-05
0.00300398 -0.000368654 1e-05
0.0030497 -0.000425956 1e-05
0.00309511 -0.000483503 1e-05
0.00314021 -0.000541293 1e-05
0.00318507 -0.000599278 1e-05
0.00323259 -0.00066128 1e-05
0.00325062 -0.000685042 1e-05
0.00326859 -0.000708845 1e-05
0.00328652 -0.000732687 1e-05
0.00330439 -0.000756569 1e-05
0.00332192 -0.000780089 1e-05
0.00339006 -0.000871877 1e-05
0.0034576 -0.000964106 1e-05
0.00352452 -0.00105679 1e-05
0.00359089 -0.00114986 1e-05
0.00365376 -0.00123896 1e-05
0.00368023 -0.00127687 1e-05
0.00370662 -0.00131484 1e-05
0.00373294 -0.00135286 1e-05
0.00375921 -0.00139092 1e-05
0.00378611 -0.00143001 1e-05
0.00383007 -0.0014941 1e-05
0.00387382 -0.00155834 1e-05
0.00391736 -0.00162273 1e-05
0.00396066 -0.00168727 1e-05
0.0040028 -0.00175043 1e-05
0.00407103 -0.00185329 1e-05
0.00413884 -0.00195642 1e-05
0.00420622 -0.00205984 1e-05
0.00427331 -0.00216343 1e-05
0.00434393 -0.00227314 1e-05
0.00434996 -0.00228257 1e-05
0.00435599 -0.002292 1e-05
0.00436201 -0.00230144 1e-05
0.00436803 -0.00231088 1e-05
0.00437403 -0.0023203 1e-05
0.00445488 -0.00244725 1e-05
0.00453528 -0.00257448 1e-05
0.00461528 -0.00270197 1e-05
0.00469493 -0.00282968 1e-05
0.0047728 -0.00295497 1e-05
0.00479946 -0.00299802 1e-05
0.00482609 -0.00304107 1e-05
0.0048527 -0.00308415 1e-05
0.00487929 -0.00312723 1e-05
0.00490609 -0.00317063 1e-05
0.00496671 -0.00326883 1e-05
0.00502719 -0.00336712 1e-05
0.00508751 -0.00346551 1e-05
0.0051477 -0.00356397 1e-05
0.00520734 -0.00366161 1e-05
0.0052604 -0.00374853 1e-05
0.00531341 -0.00383548 1e-05
0.00536639 -0.00392245 1e-05
0.00541939 -0.0040094 1e-05
0.00547262 -0.00409662 1e-05
0.00551559 -0.00416692 1e-05
0.00555852 -0.00423724 1e-05
0.00560142 -0.00430758 1e-05
0.00564431 -0.00437793 1e-05
0.00568712 -0.00444811 1e-05
0.00575841 -0.00456486 1e-05
0.00582974 -0.00468159 1e-05
0.00590112 -0.00479828 1e-05
0.00597264 -0.00491489 1e-05
0.00604356 -0.00503006 1e-05
0.00607981 -0.0050887 1e-05
0.00611607 -0.00514733 1e-05
0.00615234 -0.00520596 1e-05
0.00618863 -0.00526458 1e-05
0.00622503 -0.00532326 1e-05
0.00630381 -0.00545002 1e-05
0.00638278 -0.00557667 1e-05
0.00646195 -0.00570319 1e-05
0.00654139 -0.00582955 1e-05
0.00661893 -0.00595208 1e-05
0.00666283 -0.006021 1e-05
0.00670679 -0.00608989 1e-05
0.0067508 -0.00615875 1e-05
0.00679489 -0.00622755 1e-05
0.00683936 -0.00629671 1e-05
0.00691125 -0.00640811 1e-05
0.00698338 -0.00651935 1e-05
0.00705578 -0.00663041 1e-05
0.00712846 -0.00674129 1e-05
0.00719878 -0.00684774 1e-05
0.00726948 -0.006954 1e-05
0.0073404 -0.00706011 1e-05
0.00741154 -0.00716607 1e-05
0.007483 -0.00727182 1e-05
0.00755598 -0.00737909 1e-05
0.00760141 -0.00744538 1e-05
0.00764697 -0.00751158 1e-05
0.00769266 -0.00757769 1e-05
0.00773847 -0.00764372 1e-05
0.00778313 -0.00770774 1e-05
0.00790091 -0.0078757 1e-05
0.00801946 -0.00804312 1e-05
0.00813878 -0.00820999 1e-05
0.0082591 -0.00837615 1e-05
0.00837203 -0.00853005 1e-05
0.00837974 -0.00854042 1e-05
0.00838746 -0.00855079 1e-05
0.00839518 -0.00856115 1e-05
0.0084029 -0.00857151 1e-05
0.00841065 -0.00858189 1e-05
0.00852162 -0.00873052 1e-05
0.00863341 -0.00887853 1e-05
0.00874605 -0.0090259 1e-05
0.00885955 -0.0091726 1e-05
0.00896551 -0.00930768 1e-05
0.00903013 -0.00938901 1e-05
0.00909502 -0.00947013 1e-05
0.00916017 -0.00955103 1e-05
0.00922563 -0.00963169 1e-05
0.00929325 -0.00971439 1e-05
0.00934732 -0.00977997 1e-05
0.00940159 -0.0098454 1e-05
0.00945605 -0.00991066 1e-05
0.0095107 -0.00997576 1e-05
0.0095636 -0.0100384 1e-05
[...]
POINT_DATA 12278
 FIELD attributes 2
p 1 12278 float
177013 177095 177167 177231 177285 177329
108946 108965 108981 108995 109007 109018
87753 87762.6 87772 87781.1 87790.1 87798.5
79935.3 79941.6 79947.8 79954 79960 79966
77144.4 77153.6 77162.8 77172.1 77181.3 77190.5
77561.8 77575.4 77588.9 77602.5 77616 77629.6
81095 81107.4 81119.6 81131.7 81143.6 81155.4
90921.4 90941.2 90960.2 90978.5 90996.1 91013
117353 117386 117416 117445 117471 117494
215472 215283 215091 214896 214700 214502
177013 173408 169081 164502 162836 158904 155522 152871 144706 134664 129222 123793 119855 119244 118392 112347 106447 102326 101430 100564 99581.4 98599.2 97172.5 95704.2 93988.6 93622.1 93255.1 92887.6 92406.6 91908.8 89989.3 88185.4 86671.4 85884.1 85107.3 84421.5 83756.8 83107 82455.2 81621.2 81586.3 81557.4 81529.4 81501.3 81472.5 80939.8 80407.5 79875.6 79344.3 78919.3 78493 78083.9 77686.2 77310.6 76944.6 76594.7 76244.4 75920.7 75619.2 75318.1 75028.6 74739 74460.5 74197.6 73935 73681.4 73427.7 73177.6 72941.4 72705.4 72476.5 72247.6 72017 71797.6 71578.4 71364.7 71151.2 70932.6 70721.7 70511.1 70303.9 70097 69884 69671.6 69459.4 69247.5 69036.1 68820.9 68592.9 68365.3 68132.3 67896.7 67652.6 67400 67134.1 66853.8 66540 66227.9 65917.2 65604.2 65604 65603.8 65603.6 65603.4 65603.1 65211.8 64826.3 64446.4 64048.2 63568.1 63052.6 62542.8 61841.8 61068.6 60255.5 60007.3 59769.4 59542.4 59316 59130.7 58573.7 58014.5 57453.3 56979.9 56511.5 55906.9 55304.2 54764.4 54223.3 53839.1 53780.9 53722.6 53667.2 53619.5 53571.2 53018 52457.7 51939.7 51467.3 50922.2 50921.1 50919.9 50919 50918.1 50917.2 50490.2 50055.6 49653.2 49317.7 49048.8 48949.5 48849.7 48778.8 48709.1 48636.4 48448 48257.3 48064.7 47920.4 47788.3 47615.5 47446.8 47307.1 47165.4 47006 46999.6 46993.3 46986.9 46981.1 46975.6 46870.3 46758 46643.2 46530 46423 46387.5 46350.7 46311.1 46270.7 46226.9 46206.8 46186.6 46166.2 46145 46123.9 46098.6 46071.8 46034.8 45992.4 45950.9 45953.3 45955.5 45954.8 45954 45953 45941.7 45930 45917.9 45902.8 45887.6 45897.4 45906.6 45911.1 45915.1 45918.8 45918 45917.1 45916.3 45915.2 45914.1 45927.7 45941.3 45954 45964.7 45975 45985.3 45995.6 46005.4 46015.1 46024.9 46036.4 46047.8 46059 46070.1 46081 46099.5 46117.9 46136.4 46154.9 46173.5 46182.1 46190.6 46199.3 46208.4 46217.5 46240.2 46263 46286.4 46310.3 46334.1 46341.4 46348.8 46356.6 46364.9 46373.1 46396.4 46419.7 46443.8 46469.1 46493.9 46502.8 46511.7 46521.4 46531.6 46541.9 46561.6 46581.3 46601.7 46623.6 46644.8 46658.7 46672.7 46688.4 46704.7 46721.4 46732.9 46744.5 46756.2 46768.9 46781.3 46803.2 46825.4 46850.8 46877 46903 46904.1 46905.2 46906.6 46908 46909.4 46930.5 46951.9 46973.7 46997.6 47020 47029.5 47039.1 47050.1 47061.2 47072.7 47082.3 47092.1 47101.8 47112.3 47122.4 47139.6 47156.9 47175.9 47195.7 47215.1 47217.7 47220.3 47223.3 47226.2 47229.2 47243.6 47258 47272.5 47288.1 47303 47316.8 47331 47346.5 47362.1 47379 47379 47379.1 47379.2 47379.3 47379.3 47393.9 47408.7 47423.5 47439.4 47454.6 47466.7 47479.3 47492.9 47506.6 47519.7 47520.3 47520.9 47521.6 47522.3 47523 47534.8 47546.6 47558.5 47571.1 47583.6 47593.9 47604.3 47615.9 47628.1 47640.1 47644.1 47648.5 47653.2 47657.9 47662.8 47668.6 47674.5 47680.4 47686.5 47692.9 47701.7 47710.8 47720.5 47731.4 47741.9 47749.5 47757.6 47766.5 47775.5 47784.6 47786.8 47789.2 47791.7 47794.3 47796.9 47802.3 47807.7 47813 47818.5 47824.6 47830.8 47837.4 47844.3 47852.3 47860.2 47865.2 47870.3 47876.5 47883.2 47889.9 47893.5 47898.2 47902.9 47907.5 47912.8 47913.1 47913.3 47913.6 47913.8 47914.1 47918.2 47922.4 47926.5 47930.6 47935.7 47938 47940.6 47943.5 47947.4 47951.3 47952.4 47953.6 47955.5 47958.3 47960.9 47960.9 47961.4 47962.3 47963.1 47964.6 47963.8 47963.5 47963.2 47962.9 47962.5 47962.5 47962.5 47962.5 47962.5 47962.5 47961.1 47959.8 47958.4 47957.1 47956.3 47953.1 47950.6 47948 47945.7 47943.9 47939.6 47935.3 47931.5 47928.5 47925.4 47919.9 47914.4 47909.5 47905.2 47900.9 47894.3 47887.7 47881.6 47876 47870.5 47862.7 47855.3 47848.1 47840.9 47834.2 47825.5 47817.1 47808.8 47800.4 47792.3 47783.7 47775.2 47766.8 47758.3 47748.4 47747.7 47747 47746.2 47745.5 47744.8 47734.4 47723.9 47713.5 47703 47692.7 47680.9 47669.5 47658 47646.4 47635.2 47622.2 47609.7 47597.2 47584.7 47572.4 47558.5 47544.9 47531.4 47518 47504.7 47489.9 47475.2 47460.8 47446.5 47432.2 47416.5 47400.8 47385.5 47370.3 47355.1 47338.6 47322 47305.8 47289.7 47273.6 47256.3 47238.9 47221.7 47204.8 47187.9 47169.8 47151.7 47133.7 47115.9 47098.2 47079.4 47060.6 47041.7 47023.2 47004.7 46985.3 46965.8 46946.2 46926.9 46907.7 46887.6 46867.4 46847.2 46827.1 46807.2 46786.5 46765.7 46744.9 46724.1 46703.6 46682.3 46660.9 46639.4 46618.1 46596.9 46575 46553.1 46531.1 46509.1 46487.4 46465 46442.5 46420 46397.5 46375.2 46352.3 46329.3 46306.3 46283.3 46260.4 46237.1 46213.6 46190.2 46166.7 46143.4 46119.6 46095.7 46071.8 46047.9 46024.1 45999.9 45975.6 45951.2 45926.9 45902.7 45878.1 45853.4 45828.7 45804 45779.4 45754.4 45729.4 45704.3 45679.2 45654.2 45628.9 45603.5 45578.1 45552.7 45527.4 45501.7 45476 45450.3 45424.6 45398.9 45372.9 45346.9 45320.9 45294.9 45268.9 45242.6 45216.3 45190 45163.7 45137.5 45110.9 45084.4 45057.8 45031.2 45004.7 44977.9 44951.1 44924.3 44897.5 44870.6 44843.6 44816.6 44789.5 44762.4 44735.4 44708.1 44680.9 44653.6 44626.3 44599 44571.5 44544 44516.5 44489 44461.5 44433.8 44406.1 44378.4 44350.7 44323 44295.1 44267.2 44239.3 44211.4 44183.4 44155.4 44127.3 44099.1 44071 44042.9 44014.7 43986.4 43958.1 43929.8 43901.5 43873 43844.6 43816.1 43787.6 43759.1 43730.5 43701.8 43673.2 43644.5 43615.9 43587 43558.2 43529.4 43500.5 43471.7 43442.7 43413.7 43384.7 43355.7 43326.7 43297.5 43268.4 43239.2 43210 43180.8 43151.5 43122.2 43092.8 43063.5 43034.1 43004.6 42975.1 42945.6 42916 42886.5 42856.9 42827.2 42797.5 42767.8 42738.1 42708.2 42678.4 42648.5 42618.7 42588.8 42558.8 42528.7 42498.7 42468.7 42438.6 42408.4 42378.2 42348 42317.8 42287.6 42257.2 42226.8 42196.4 42166 42135.6 42105.1 42074.5 42044 42013.4 41982.8 41952.1 41921.4 41890.6 41859.9 41829.1 41798.2 41767.2 41736.3 41705.4 41674.4 41643.3 41612.2 41581.1 41550 41518.8 41487.5 41456.2 41424.9 41393.6 41362.2 41330.8 41299.3 41267.8 41236.2 41204.7 41173 41141.3 41109.6 41077.9 41046.2 41014.3 40982.4 40950.5 40918.6 40886.6 40854.5 40822.4 40790.3 40758.2 40726 40693.7 40661.4 40629.1 40596.7 40564.4 40531.9 40499.3 40466.8 40434.3 40401.7 40369 40336.2 40303.4 40270.7 40237.9 40204.9 40171.9 40139 40106 40072.9 40039.8 40006.6 39973.4 39940.2 39906.9 39873.5 39840.1 39806.6 39773.2 39739.7 39706.1 39672.4 39638.7 39605 39571.3 39537.5 39503.5 39469.6 39435.7 39401.7 39367.7 39333.5 39299.4 39265.2 39231 39196.6 39162.2 39127.8 39093.4 39059 39024.4 38989.7 38955.1 38920.4 38885.7 38850.9 38816 38781.1 38746.2 38711.2 38676.1 38641 38605.8 38570.7 38535.4 38500.1 38464.7 38429.2 38393.8 38358.3 38322.7 38287 38251.4 38215.7 38179.9 38144 38108.1 38072.1 38036.2 38000.2 37964 37927.8 37891.6 37855.4 37819.1 37782.7 37746.2 37709.7 37673.2 37636.6 37599.9 37563.2 37526.4 37489.6 37452.8 37415.8 37378.8 37341.7 37304.7 37267.5 37230.3 37193 37155.6 37118.3 37080.9 37043.3 37005.7 36968.1 36930.5 36892.8 36855 36817.1 36779.2 36741.3 36703.3 36665.1 36627 36588.8 36550.6 36512.3 36473.9 36435.4 36396.9 36358.4 36319.8 36281.1 36242.4 36203.6 36164.8 36125.9 36086.9 36047.8 36008.8 35969.6 35930.5 35891.2 35851.8 35812.4 35773 35733.5 35693.9 35654.3 35614.6 35574.8 35535.1 35495.1 35455.2 35415.2 35375.1 35335 35294.8 35254.6 35214.2 35173.9 35133.5 35092.9 35052.4 35011.7 34971.1 34930.4 34889.5 34848.6 34807.7 34766.7 34725.7 34684.5 34643.3 34602 34560.7 34519.4 34477.9 34436.3 34394.8 34353.1 34311.5 34269.6 34227.8 34185.9 34143.9 34101.9 34059.8 34017.6 33975.4 33933.1 33890.8 33848.3 33805.8 33763.3 33720.6 33678 33635.2 33592.4 33549.5 33506.5 33463.6 33420.4 33377.3 33334 33290.7 33247.4 33204 33160.5 33116.9 33073.3 33029.6 32985.8 32942 32898.1 32854.1 32810.1 32766 32721.8 32677.6 32633.3 32588.9 32544.4 32499.9 32455.3 32410.7 32366 32321.2 32276.3 32231.4 32186.4 32141.3 32096.1 32050.9 32005.7 31960.3 31914.9 31869.4 31823.8 31778.2 31732.5 31686.8 31640.8 31594.9 31548.9 31502.9 31456.8 31410.5 31364.3 31317.9 31271.5 31225.1 31178.4 31131.8 31085.1 31038.3 30991.5 30944.5 30897.5 30850.5 30803.3 30756.1 30708.8 30661.4 30614 30566.5 30518.9 30471.2 30423.5 30375.7 30327.8 30279.9 30231.8 30183.7 30135.5 30087.2 30039 29990.5 29942 29893.4 29844.8 29796.2 29747.3 29698.4 29649.5 29600.5 29551.5 29502.2 29453 29403.7 29354.3 29304.9 29255.2 29205.6 29155.9 29106.1 29056.3 29006.3 28956.3 28906.2 28856 28805.8 28755.4 28705 28654.5 28603.9 28553.3 28502.5 28451.7 28400.8 28349.8 28298.8 28247.6 28196.4 28145.1 28093.7 28042.4 27990.7 27939.1 27887.4 27835.6 27783.8 27731.8 27679.7 27627.6 27575.4 27523.2 27470.8 27418.3 27365.8 27313.2 27260.5 27207.7 27154.8 27101.8 27048.8 26995.8 26942.5 26889.1 26835.8 26782.3 26728.9 26675.1 26621.4 26567.6 26513.7 26459.8 26405.7 26351.5 26297.3 26243 26188.7 26134.2 26079.6 26025 25970.3 25915.6 25860.6 25805.6 25750.6 25695.6 25640.5 25585.1 25529.8 25474.5 25419.1 25363.7 25308 25252.4 25196.8 25141.1 25085.5 25029.6 24973.8 24918.1 24862.3 24806.6 24750.7 24694.9 24639.2 24583.6 24527.9 24472.2 24416.9 24361.8 24306.7 24252 24197.3 24142.4 24087.4 24032.4 23977 23922.3 23873.6 23825 23776.3 23732.6 23683.4 23618.1 23552.6 23487.1 23412.6 23361.4 23331 23301 23271.2 23257 23252.8 23248.7 23244.5 23240.3 23238.8 23236.2 23230.9 23225.7 23220.4 23214.7 23187.7 23160.5 23133.1 23105.4 23061.8 22985.9 22916.9 22848 22779.1 22722.8 22671.7 22615.4 22559 22502.7 22440 22372.2 22304.2 22236.1 22167.9 22099.5 22028.2 21954.9 21881.7 21808.5 21733.1 21654.9 21575.1 21495.3 21415.5 21334.1 21249.8 21163.7 21077.5 20991.4 20903.4 20812.4 20719.5 20626.5 20533.5 20438.7 20340.6 20240.4 20140.1 20039.7 19937.4 19831.5 19723.3 19615 19506.6 19396.1 19281.8 19164.7 19047.5 18930.2 18810.4 18686.4 18559.6 18432.7 18305.7 18176.3 18042.2 17904.3 17766.1 17627.8 17485.9 17338.9 17189.3 17039.4 16889.4 16737.2 16579.4 16414.8 16249.9 16084.7 15913.2 15735.5 15557.3 15379.2 15201 15022.9 14838.3 14638.8 14438.4 14237.4 14022.1 13798.9 13585.8 13373.3 13161.4 12960 12751.2 12503.7 12253.9 12002 11712.7 11412.6 11157.2 10904.7 10654.9 10450.2 10237.6 9921.62 9598.04 9265.88 8833.2 8384.21 8071.45 7773.84 7494.25 7349.14 7198.1 6801.62 6357.16 5838.93 5089.56 4311.28 3779.13 3398.21 3250.86 3316.6 3382.92 3361.97 2777.11 1388.14 0