# vtk DataFile Version 2.0
track0
ASCII
DATASET POLYDATA
POINTS 12278 float
-0.0205 0.001 1e-05
-0.02052 0.000999216 1e-05
-0.02054 0.000998592 1e-05
-0.02056 0.000998126 1e-05
-0.02058 0.000997818 1e-05
-0.0206 0.000997665 1e-05
-0.0205 0.00367778 1e-05
-0.02052 0.00367703 1e-05
-0.02054 0.00367643 1e-05
-0.02056 0.00367599 1e-05
-0.02058 0.00367569 1e-05
-0.0206 0.00367554 1e-05
-0.0205 0.00635556 1e-05
-0.02052 0.00635527 1e-05
-0.02054 0.00635505 1e-05
-0.02056 0.00635488 1e-05
-0.02058 0.00635476 1e-05
-0.0206 0.00635471 1e-05
-0.0205 0.00903333 1e-05
-0.02052 0.00903311 1e-05
-0.02054 0.00903293 1e-05
-0.02056 0.0090328 1e-05
-0.02058 0.00903271 1e-05
-0.0206 0.00903266 1e-05
-0.0205 0.0117111 1e-05
-0.02052 0.0117111 1e-05
-0.02054 0.011711 1e-05
-0.02056 0.011711 1e-05
-0.02058 0.011711 1e-05
-0.0206 0.011711 1e-05
-0.0205 0.0143889 1e-05
-0.02052 0.014389 1e-05
-0.02054 0.014389 1e-05
-0.02056 0.0143891 1e-05
-0.02058 0.0143891 1e-05
-0.0206 0.0143891 1e-05
-0.0205 0.0170667 1e-05
-0.02052 0.017067 1e-05
-0.02054 0.0170672 1e-05
-0.02056 0.0170674 1e-05
-0.02058 0.0170675 1e-05
-0.0206 0.0170676 1e-05
-0.0205 0.0197444 1e-05
-0.02052 0.019745 1e-05
-0.02054 0.0197454 1e-05
-0.02056 0.0197457 1e-05
-0.02058 0.0197459 1e-05
-0.0206 0.019746 1e-05
-0.0205 0.0224222 1e-05
-0.02052 0.022423 1e-05
-0.02054 0.0224236 1e-05
-0.02056 0.0224241 1e-05
-0.02058 0.0224244 1e-05
-0.0206 0.0224245 1e-05
-0.0205 0.0251 1e-05
-0.02052 0.0251003 1e-05
-0.02054 0.0251005 1e-05
-0.02056 0.0251007 1e-05
-0.02058 0.0251008 1e-05
-0.0206 0.0251008 1e-05
-0.0205 0.001 1e-05
-0.0203632 0.00100536 1e-05
-0.0202266 0.00101331 1e-05
-0.0200901 0.00102296 1e-05
-0.0200427 0.00102682 1e-05
-0.0198376 0.00104418 1e-05
-0.0196338 0.00107322 1e-05
-0.0194327 0.00111734 1e-05
-0.0192368 0.00118024 1e-05
-0.0190172 0.00124951 1e-05
-0.0189002 0.00128348 1e-05
-0.0187827 0.00131598 1e-05
-0.0186649 0.001347 1e-05
-0.0185469 0.001377 1e-05
-0.0183807 0.00141936 1e-05
-0.0182041 0.00146458 1e-05
-0.0180267 0.00150692 1e-05
-0.0178487 0.0015464 1e-05
-0.0176703 0.00158389 1e-05
-0.0174976 0.00161991 1e-05
-0.0172846 0.00166394 1e-05
-0.0170715 0.00170741 1e-05
-0.0168583 0.00175029 1e-05
-0.0166449 0.00179219 1e-05
-0.0163945 0.00184007 1e-05
-0.0163234 0.00185324 1e-05
-0.0162522 0.00186629 1e-05
-0.016181 0.00187921 1e-05
-0.0161097 0.00189201 1e-05
-0.0160387 0.0019046 1e-05
-0.0157586 0.0019535 1e-05
-0.0154779 0.00199931 1e-05
-0.0151968 0.00204225 1e-05
-0.0149154 0.00208283 1e-05
-0.0146381 0.00212134 1e-05
-0.0143838 0.00215527 1e-05
-0.0141293 0.00218766 1e-05
-0.0138747 0.00221855 1e-05
-0.0136198 0.00224797 1e-05
-0.0132934 0.00228369 1e-05
-0.0132791 0.00228515 1e-05
-0.0132648 0.0022866 1e-05
-0.0132504 0.00228805 1e-05
-0.0132361 0.0022895 1e-05
-0.0132214 0.00229098 1e-05
-0.0129776 0.00231543 1e-05
-0.0127337 0.00233865 1e-05
-0.0124897 0.00236061 1e-05
-0.0122456 0.00238129 1e-05
-0.0120025 0.00240058 1e-05
-0.0117547 0.00241909 1e-05
-0.0115067 0.00243627 1e-05
-0.0112587 0.00245231 1e-05
-0.0110106 0.00246734 1e-05
-0.0107632 0.00248136 1e-05
-0.0105252 0.00249391 1e-05
-0.0102872 0.00250547 1e-05
-0.0100491 0.00251602 1e-05
-0.00981105 0.00252575 1e-05
-0.00957337 0.00253471 1e-05
-0.00934491 0.00254261 1e-05
-0.00911643 0.00254974 1e-05
-0.00888792 0.0025561 1e-05
-0.0086594 0.00256171 1e-05
-0.00843108 0.00256668 1e-05
-0.00821175 0.00257084 1e-05
-0.00799241 0.00257439 1e-05
-0.00777306 0.00257731 1e-05
-0.0075537 0.00257952 1e-05
-0.00733443 0.00258114 1e-05
-0.00712387 0.00258212 1e-05
-0.0069133 0.00258255 1e-05
-0.00670273 0.00258243 1e-05
-0.00649216 0.00258162 1e-05
-0.0062816 0.00258017 1e-05
-0.00607944 0.00257819 1e-05
-0.0058773 0.00257565 1e-05
-0.00567516 0.00257256 1e-05
-0.00547303 0.00256874 1e-05
-0.00527083 0.00256419 1e-05
-0.00507675 0.00255912 1e-05
-0.00488269 0.00255343 1e-05
-0.00468865 0.00254711 1e-05
-0.00449464 0.00253997 1e-05
-0.00430044 0.0025319 1e-05
-0.00411412 0.00252329 1e-05
-0.00392784 0.00251388 1e-05
-0.00374159 0.00250368 1e-05
-0.0035554 0.00249254 1e-05
-0.00336883 0.00248015 1e-05
-0.00318995 0.00246711 1e-05
-0.00301115 0.00245299 1e-05
-0.00283245 0.00243774 1e-05
-0.00265386 0.0024212 1e-05
-0.00247443 0.00240314 1e-05
-0.0023027 0.00238425 1e-05
-0.00213114 0.00236383 1e-05
-0.00195982 0.00234153 1e-05
-0.00178875 0.00231737 1e-05
-0.00161577 0.00229105 1e-05
-0.00161569 0.00229103 1e-05
-0.0016156 0.00229102 1e-05
-0.00161551 0.00229101 1e-05
-0.00161543 0.00229099 1e-05
-0.00161534 0.00229098 1e-05
-0.00145056 0.00226407 1e-05
-0.00128617 0.00223481 1e-05
-0.00112222 0.00220325 1e-05
-0.000958705 0.00216946 1e-05
-0.000791418 0.00213236 1e-05
-0.000633135 0.00209424 1e-05
-0.000475556 0.00205331 1e-05
-0.000318719 0.00200963 1e-05
-0.000162835 0.00196266 1e-05
0 0.0019095 1e-05
3.73323e-05 0.00189631 1e-05
7.45646e-05 0.00188283 1e-05
0.000111698 0.00186908 1e-05
0.000148735 0.00185508 1e-05
0.000179039 0.00184338 1e-05
0.000248909 0.00181593 1e-05
0.000318368 0.00178747 1e-05
0.000387401 0.00175799 1e-05
0.000455994 0.0017275 1e-05
0.000528387 0.00169411 1e-05
0.000634886 0.00164313 1e-05
0.000740278 0.0015899 1e-05
0.00084451 0.00153443 1e-05
0.00094762 0.00147691 1e-05
0.00101984 0.00143468 1e-05
0.00102805 0.00142972 1e-05
0.00103625 0.00142475 1e-05
0.00104444 0.00141976 1e-05
0.00105262 0.00141475 1e-05
0.00106088 0.00140967 1e-05
0.00116821 0.00134348 1e-05
0.00127404 0.00127492 1e-05
0.00137827 0.00120397 1e-05
0.00148099 0.00113083 1e-05
0.00159664 0.00104511 1e-05
0.00159681 0.00104497 1e-05
0.00159699 0.00104483 1e-05
0.00159717 0.0010447 1e-05
0.00159734 0.00104456 1e-05
0.00159752 0.00104442 1e-05
0.00169217 0.000970863 1e-05
0.00178542 0.000895537 1e-05
0.00187719 0.000818413 1e-05
0.00196754 0.000739635 1e-05
0.00203793 0.000676366 1e-05
0.00205801 0.000657863 1e-05
0.002078 0.00063927 1e-05
0.00209792 0.000620587 1e-05
0.00211777 0.000601841 1e-05
0.00213833 0.000582311 1e-05
0.00219144 0.000531508 1e-05
0.00224406 0.000480188 1e-05
0.00229617 0.000428343 1e-05
0.00234774 0.000375968 1e-05
0.00239402 0.000328255 1e-05
0.00245189 0.000267776 1e-05
0.00250912 0.000206697 1e-05
0.00256572 0.000145035 1e-05
0.0026218 8.29063e-05 1e-05
0.00268334 1.35602e-05 1e-05
0.0026857 1.08482e-05 1e-05
0.00268806 8.13512e-06 1e-05
0.00269041 5.42108e-06 1e-05
0.00269277 2.70604e-06 1e-05
0.00269512 0 1e-05
0.00275901 -7.37367e-05 1e-05
0.00282229 -0.000148005 1e-05
0.00288493 -0.000222813 1e-05
0.0029469 -0.000298173 1e-05
0.00300398 -0.000368654 1e-05
0.0030497 -0.000425956 1e-05
0.00309511 -0.000483503 1e-05
0.00314021 -0.000541293 1e-05
0.00318507 -0.000599278 1e-05
0.00323259 -0.00066128 1e-05
0.00325062 -0.000685042 1e-05
0.00326859 -0.000708845 1e-05
0.00328652 -0.000732687 1e-05
0.00330439 -0.000756569 1e-05
0.00332192 -0.000780089 1e-05
0.00339006 -0.000871877 1e-05
0.0034576 -0.000964106 1e-05
0.00352452 -0.00105679 1e-05
0.00359089 -0.00114986 1e-05
0.00365376 -0.00123896 1e-05
0.00368023 -0.00127687 1e-05
0.00370662 -0.00131484 1e-05
0.00373294 -0.00135286 1e-05
0.00375921 -0.00139092 1e-05
0.00378611 -0.00143001 1e-05
0.00383007 -0.0014941 1e-05
0.00387382 -0.00155834 1e-05
0.00391736 -0.00162273 1e-05
0.00396066 -0.00168727 1e-05
0.0040028 -0.00175043 1e-05
0.00407103 -0.00185329 1e-05
0.00413884 -0.00195642 1e-05
0.00420622 -0.00205984 1e-05
0.00427331 -0.00216343 1e-05
0.00434393 -0.00227314 1e-05
0.00434996 -0.00228257 1e-05
0.00435599 -0.002292 1e-05
0.00436201 -0.00230144 1e-05
0.00436803 -0.00231088 1e-05
0.00437403 -0.0023203 1e-05
0.00445488 -0.00244725 1e-05
0.00453528 -0.00257448 1e-05
0.00461528 -0.00270197 1e-05
0.00469493 -0.00282968 1e-05
0.0047728 -0.00295497 1e-05
0.00479946 -0.00299802 1e-05
0.00482609 -0.00304107 1e-05
0.0048527 -0.00308415 1e-05
0.00487929 -0.00312723 1e-05
0.00490609 -0.00317063 1e-05
0.00496671 -0.00326883 1e-05
0.00502719 -0.00336712 1e-05
0.00508751 -0.00346551 1e-05
0.0051477 -0.00356397 1e-05
0.00520734 -0.00366161 1e-05
0.0052604 -0.00374853 1e-05
0.00531341 -0.00383548 1e-05
0.00536639 -0.00392245 1e-05
0.00541939 -0.0040094 1e-05
0.00547262 -0.00409662 1e-05
0.00551559 -0.00416692 1e-05
0.00555852 -0.00423724 1e-05
0.00560142 -0.00430758 1e-05
0.00564431 -0.00437793 1e-05
0.00568712 -0.00444811 1e-05
0.00575841 -0.00456486 1e-05
0.00582974 -0.00468159 1e-05
0.00590112 -0.00479828 1e-05
0.00597264 -0.00491489 1e-05
0.00604356 -0.00503006 1e-05
0.00607981 -0.0050887 1e-05
0.00611607 -0.00514733 1e-05
0.00615234 -0.00520596 1e-05
0.00618863 -0.00526458 1e-05
0.00622503 -0.00532326 1e-05
0.00630381 -0.00545002 1e-05
0.00638278 -0.00557667 1e-05
0.00646195 -0.00570319 1e-05
0.00654139 -0.00582955 1e-05
0.00661893 -0.00595208 1e-05
0.00666283 -0.006021 1e-05
0.00670679 -0.00608989 1e-05
0.0067508 -0.00615875 1e-05
0.00679489 -0.00622755 1e-05
0.00683936 -0.00629671 1e-05
0.00691125 -0.00640811 1e-05
0.00698338 -0.00651935 1e-05
0.00705578 -0.00663041 1e-05
0.00712846 -0.00674129 1e-05
0.00719878 -0.00684774 1e-05
0.00726948 -0.006954 1e-05
0.0073404 -0.00706011 1e-05
0.00741154 -0.00716607 1e-05
0.007483 -0.00727182 1e-05
0.00755598 -0.00737909 1e-05
0.00760141 -0.00744538 1e-05
0.00764697 -0.00751158 1e-05
0.00769266 -0.00757769 1e-05
0.00773847 -0.00764372 1e-05
0.00778313 -0.00770774 1e-05
0.00790091 -0.0078757 1e-05
0.00801946 -0.00804312 1e-05
0.00813878 -0.00820999 1e-05
0.0082591 -0.00837615 1e-05
0.00837203 -0.00853005 1e-05
0.00837974 -0.00854042 1e-05
0.00838746 -0.00855079 1e-05
0.00839518 -0.00856115 1e-05
0.0084029 -0.00857151 1e-05
0.00841065 -0.00858189 1e-05
0.00852162 -0.00873052 1e-05
0.00863341 -0.00887853 1e-05
0.00874605 -0.0090259 1e-05
0.00885955 -0.0091726 1e-05
0.00896551 -0.00930768 1e-05
0.00903013 -0.00938901 1e-05
0.00909502 -0.00947013 1e-05
0.00916017 -0.00955103 1e-05
0.00922563 -0.00963169 1e-05
0.00929325 -0.00971439 1e-05
0.00934732 -0.00977997 1e-05
0.00940159 -0.0098454 1e-05
0.00945605 -0.00991066 1e-05
0.0095107 -0.00997576 1e-05
0.0095636 -0.0100384 1e-05
[...]
POINT_DATA 12278
 FIELD attributes 1
U 3 12278 float
9.72339 	0.381311 	0 9.77871 	0.305049 	0 9.83405 	0.228765 	0 9.8894 	0.152465 	0 9.94476 	0.0761532 	0 10 	0 	0
10.0671 	0.375483 	0 10.0537 	0.300387 	0 10.0403 	0.225271 	0 10.0268 	0.150141 	0 10.0134 	0.0750009 	0 10 	0 	0
10.0364 	0.141572 	0 10.0291 	0.113304 	0 10.0218 	0.085089 	0 10.0145 	0.0569263 	0 10.0071 	0.0288164 	0 10 	0 	0
10.0137 	0.111519 	0 10.011 	0.0892151 	0 10.0082 	0.0669108 	0 10.0055 	0.0446062 	0 10.0027 	0.0223012 	0 10 	0 	0
10.0097 	0.0196534 	0 10.0078 	0.0157227 	0 10.0058 	0.011792 	0 10.0039 	0.00786134 	0 10.0019 	0.00393066 	0 10 	0 	0
10.0102 	-0.0372875 	0 10.0082 	-0.02983 	0 10.0061 	-0.0223725 	0 10.0041 	-0.014915 	0 10.002 	-0.00745741 	0 10 	0 	0
10.0174 	-0.148997 	0 10.0139 	-0.119197 	0 10.0105 	-0.0893967 	0 10.007 	-0.0595953 	0 10.0035 	-0.0297932 	0 10 	0 	0
10.0362 	-0.265901 	0 10.029 	-0.212721 	0 10.0217 	-0.159534 	0 10.0145 	-0.106342 	0 10.0072 	-0.053146 	0 10 	0 	0
10.0563 	-0.387167 	0 10.045 	-0.309734 	0 10.0338 	-0.23228 	0 10.0225 	-0.15481 	0 10.0112 	-0.0773281 	0 10 	0 	0
8.30133 	-0.114495 	0 8.4287 	-0.091596 	0 8.55659 	-0.0686962 	0 8.68498 	-0.0457957 	0 8.81385 	-0.0228949 	0 8.94315 	0 	0
9.72339 	0.381311 	0 9.5415 	0.555241 	0 9.39671 	0.663651 	0 9.26203 	0.754271 	0 9.2183 	0.780385 	0 8.95344 	1.27614 	0 8.70578 	1.91036 	0 8.48173 	2.72184 	0 8.46724 	2.67123 	0 8.47252 	2.45986 	0 8.50117 	2.35314 	0 8.52498 	2.2443 	0 8.51221 	2.16311 	0 8.42487 	2.14738 	0 8.30214 	2.12559 	0 8.30117 	1.9821 	0 8.28715 	1.83798 	0 8.21181 	1.72569 	0 8.035 	1.67507 	0 7.86306 	1.62575 	0 7.68323 	1.56759 	0 7.50177 	1.50875 	0 7.42793 	1.45839 	0 7.36148 	1.40771 	0 7.27865 	1.34671 	0 7.22249 	1.32376 	0 7.16614 	1.3007 	0 7.10958 	1.27753 	0 7.07928 	1.2544 	0 7.05291 	1.23121 	0 6.97394 	1.13838 	0 6.88841 	1.05226 	0 6.79883 	0.980329 	0 6.71191 	0.932082 	0 6.6228 	0.883658 	0 6.55089 	0.833774 	0 6.49229 	0.787587 	0 6.44246 	0.743854 	0 6.3887 	0.69909 	0 6.31694 	0.642265 	0 6.31477 	0.64017 	0 6.3132 	0.638345 	0 6.31172 	0.636559 	0 6.31023 	0.63477 	0 6.30868 	0.632931 	0 6.27132 	0.597061 	0 6.23151 	0.560862 	0 6.18922 	0.524331 	0 6.1444 	0.487462 	0 6.10943 	0.456251 	0 6.07602 	0.420968 	0 6.04571 	0.390994 	0 6.01701 	0.364549 	0 5.99443 	0.339599 	0 5.97316 	0.315194 	0 5.95246 	0.28906 	0 5.92972 	0.262717 	0 5.91348 	0.241656 	0 5.9034 	0.222651 	0 5.89182 	0.203584 	0 5.87917 	0.183517 	0 5.86498 	0.16335 	0 5.85627 	0.143786 	0 5.85337 	0.127397 	0 5.84919 	0.110981 	0 5.84297 	0.0943458 	0 5.8355 	0.0776693 	0 5.83341 	0.0589667 	0 5.83631 	0.0430924 	0 5.83801 	0.0272186 	0 5.83718 	0.0119206 	0 5.83535 	-0.00344636 	0 5.83921 	-0.0225482 	0 5.84733 	-0.0400402 	0 5.85425 	-0.0574781 	0 5.85861 	-0.0735454 	0 5.86185 	-0.0895868 	0 5.87122 	-0.110975 	0 5.88468 	-0.132514 	0 5.89666 	-0.153981 	0 5.90651 	-0.173348 	0 5.91508 	-0.192645 	0 5.92941 	-0.218105 	0 5.94829 	-0.247062 	0 5.96528 	-0.275879 	0 5.98122 	-0.302112 	0 5.99552 	-0.328195 	0 6.01456 	-0.35981 	0 6.03866 	-0.400975 	0 6.06027 	-0.441897 	0 6.08261 	-0.480361 	0 6.10481 	-0.520985 	0 6.13012 	-0.567643 	0 6.15459 	-0.619716 	0 6.17872 	-0.679528 	0 6.20611 	-0.738524 	0 6.23745 	-0.811918 	0 6.26493 	-0.884775 	0 6.28858 	-0.957095 	0 6.30869 	-1.0298 	0 6.30871 	-1.02985 	0 6.30872 	-1.02991 	0 6.30874 	-1.02997 	0 6.30875 	-1.03002 	0 6.30877 	-1.03008 	0 6.33256 	-1.12727 	0 6.3511 	-1.22235 	0 6.36452 	-1.31537 	0 6.37528 	-1.41406 	0 6.38856 	-1.53827 	0 6.40636 	-1.66401 	0 6.41792 	-1.78767 	0 6.40579 	-1.93019 	2.62094e-20 6.36943 	-2.07915 	5.37296e-20 6.31928 	-2.23393 	8.1232e-20 6.31107 	-2.28438 	2.3393e-20 6.29889 	-2.3317 	5.84631e-21 6.28253 	-2.37572 	3.12712e-20 6.26561 	-2.41947 	5.73162e-20 6.25127 	-2.45516 	7.91911e-20 6.22488 	-2.55103 	1.78965e-19 6.19654 	-2.64633 	2.829e-19 6.16625 	-2.74105 	3.90971e-19 6.1201 	-2.8222 	2.74337e-19 6.06355 	-2.90255 	6.24892e-20 5.98358 	-3.02221 	4.92729e-20 5.89842 	-3.13891 	3.6187e-20 5.80155 	-3.23675 	8.57145e-21 5.70028 	-3.33266 	-1.80445e-20 5.6254 	-3.39919 	-3.61755e-20 5.61625 	-3.4085 	-3.59676e-20 5.60707 	-3.4178 	-3.57446e-20 5.59781 	-3.42644 	-3.68955e-20 5.58842 	-3.4334 	-4.17029e-20 5.57889 	-3.44043 	-4.6556e-20 5.459 	-3.53664 	-2.82875e-20 5.33378 	-3.63089 	-9.44626e-21 5.20774 	-3.70783 	1.27095e-22 5.08152 	-3.76673 	-1.83021e-22 4.93255 	-3.83202 	7.62988e-23 4.93229 	-3.83217 	4.3662e-23 4.93203 	-3.83231 	1.10248e-23 4.93179 	-3.83241 	1.93543e-23 4.93156 	-3.83249 	4.85817e-23 4.93133 	-3.83257 	7.78186e-23 4.80563 	-3.88191 	1.13115e-21 4.67583 	-3.92964 	2.48887e-21 4.54892 	-3.96614 	4.21671e-21 4.43129 	-3.98323 	6.34171e-21 4.33597 	-3.9956 	8.21235e-21 4.30563 	-4.00326 	1.336e-20 4.27507 	-4.01085 	1.85456e-20 4.24976 	-4.01257 	9.22353e-21 4.22458 	-4.01393 	-8.28153e-22 4.19828 	-4.01528 	-1.125e-20 4.12447 	-4.02259 	-6.36172e-20 4.04949 	-4.02937 	-1.15616e-19 3.97347 	-4.03548 	-1.65803e-19 3.90931 	-4.02995 	-1.01566e-19 3.8505 	-4.02457 	-4.30495e-20 3.77292 	-4.02671 	4.17754e-21 3.69544 	-4.02597 	4.19988e-20 3.62354 	-4.01385 	3.42002e-20 3.55057 	-4.00126 	2.66725e-20 3.46852 	-3.98676 	1.86446e-20 3.46519 	-3.98635 	1.92688e-20 3.46186 	-3.98593 	1.98931e-20 3.45852 	-3.98551 	2.05175e-20 3.45538 	-3.98479 	2.10416e-20 3.45232 	-3.98395 	2.15243e-20 3.38419 	-3.97193 	1.41265e-20 3.31399 	-3.95777 	7.4184e-21 3.24259 	-3.94292 	7.049e-22 3.17081 	-3.91586 	6.16768e-21 3.10317 	-3.88909 	1.2351e-20 3.06108 	-3.87908 	3.47264e-20 3.01868 	-3.86768 	5.06285e-20 2.97707 	-3.84871 	2.3362e-20 2.93506 	-3.82952 	-3.84765e-21 2.88985 	-3.80882 	-3.27795e-20 2.87173 	-3.80227 	-3.88824e-20 2.85352 	-3.79566 	-4.49876e-20 2.83524 	-3.78901 	-5.10949e-20 2.81704 	-3.77994 	-5.72877e-20 2.79912 	-3.77043 	-6.33991e-20 2.74573 	-3.74936 	-1.07124e-19 2.6915 	-3.72781 	-1.5097e-19 2.6367 	-3.69716 	-1.46194e-19 2.58228 	-3.65978 	-8.81883e-20 2.52975 	-3.62368 	-3.27101e-20 2.51283 	-3.61475 	2.06509e-21 2.49585 	-3.60562 	3.52377e-20 2.47998 	-3.59322 	2.99828e-20 2.46404 	-3.58078 	2.4763e-20 2.44761 	-3.56797 	1.94431e-20 2.41707 	-3.54888 	5.65538e-20 2.38628 	-3.52961 	9.3585e-20 2.35523 	-3.51013 	1.30535e-19 2.32524 	-3.48563 	1.03447e-19 2.29584 	-3.46118 	7.23004e-20 2.25891 	-3.43549 	4.24488e-20 2.22152 	-3.40947 	1.25649e-20 2.18696 	-3.37661 	-2.90244e-21 2.15214 	-3.34341 	-1.81084e-20 2.11502 	-3.30808 	-3.42138e-20 2.11131 	-3.30522 	-3.17921e-20 2.1076 	-3.30236 	-2.93731e-20 2.10388 	-3.29949 	-2.6957e-20 2.10039 	-3.29607 	-3.40028e-20 2.0969 	-3.29263 	-4.13451e-20 2.06019 	-3.26034 	-1.64575e-19 2.02446 	-3.22601 	-2.56564e-19 1.98941 	-3.1899 	-2.99651e-19 1.95717 	-3.14901 	-1.93316e-19 1.92541 	-3.10879 	-8.89836e-20 1.91681 	-3.0991 	-7.78914e-20 1.90818 	-3.0894 	-6.6795e-20 1.90085 	-3.07856 	-5.65226e-20 1.89381 	-3.06745 	-4.64409e-20 1.88672 	-3.05626 	-3.62834e-20 1.86479 	-3.03088 	-1.17459e-20 1.84275 	-3.0054 	1.2813e-20 1.82116 	-2.97924 	2.99872e-20 1.80213 	-2.95026 	1.21532e-20 1.78324 	-2.92152 	-5.5173e-21 1.76985 	-2.90256 	-2.11358e-20 1.75642 	-2.88357 	-3.67426e-20 1.74518 	-2.86328 	-1.81108e-20 1.73488 	-2.84247 	1.47212e-20 1.72458 	-2.82163 	4.76596e-20 1.71226 	-2.80444 	1.2157e-20 1.69991 	-2.78723 	-2.32953e-20 1.68819 	-2.76954 	-3.49122e-20 1.67812 	-2.75069 	1.29649e-20 1.66808 	-2.73189 	6.07107e-20 1.65475 	-2.70769 	1.97471e-19 1.64145 	-2.68351 	3.34171e-19 1.63052 	-2.65857 	2.96366e-19 1.62137 	-2.63313 	1.33614e-19 1.61246 	-2.6081 	-2.78278e-20 1.60465 	-2.59474 	-5.73811e-20 1.59685 	-2.58138 	-8.69424e-20 1.58986 	-2.56768 	-8.97872e-20 1.58398 	-2.55352 	-5.62884e-20 1.57812 	-2.53936 	-2.27629e-20 1.56813 	-2.51484 	-2.46248e-20 1.55825 	-2.49042 	-2.65264e-20 1.55032 	-2.46588 	-1.93331e-20 1.54488 	-2.44119 	-5.03563e-22 1.53981 	-2.41738 	1.77451e-20 1.53317 	-2.40289 	2.97193e-20 1.52655 	-2.38843 	4.16889e-20 1.52124 	-2.37374 	4.57202e-20 1.51689 	-2.35891 	4.40967e-20 1.51256 	-2.34404 	4.24432e-20 1.50732 	-2.3243 	2.55663e-20 1.50222 	-2.30468 	8.66388e-21 1.49819 	-2.28527 	-3.13062e-21 1.49684 	-2.26623 	-1.11897e-21 1.49574 	-2.24807 	8.13544e-22 1.48877 	-2.22755 	7.62574e-20 1.4819 	-2.20713 	1.51929e-19 1.47764 	-2.18687 	1.2579e-19 1.4743 	-2.16677 	6.78079e-20 1.47108 	-2.14648 	8.99851e-21 1.46988 	-2.13594 	-2.33602e-20 1.46874 	-2.12545 	-5.56753e-20 1.46785 	-2.11513 	-8.19998e-20 1.46938 	-2.10624 	-3.64837e-20 1.47094 	-2.09768 	7.88488e-21 1.46381 	-2.06747 	4.60804e-21 1.45699 	-2.03753 	1.31343e-21 1.45622 	-2.01096 	-2.34576e-20 1.45678 	-1.98526 	-5.17337e-20 1.45939 	-1.96229 	-7.48632e-20 1.45892 	-1.96033 	-6.85199e-20 1.45845 	-1.95837 	-6.2231e-20 1.4584 	-1.95661 	-6.69792e-20 1.45835 	-1.95486 	-7.1725e-20 1.4583 	-1.9531 	-7.64812e-20 1.45643 	-1.92818 	-2.09499e-19 1.45492 	-1.90356 	-3.41783e-19 1.45415 	-1.87951 	-4.46544e-19 1.4584 	-1.85929 	-1.91173e-19 1.46277 	-1.84093 	4.70848e-20 1.46062 	-1.82603 	1.11178e-19 1.45858 	-1.81122 	1.75054e-19 1.4595 	-1.79853 	1.42346e-19 1.46055 	-1.78595 	1.09738e-19 1.46176 	-1.77312 	7.63107e-20 1.46268 	-1.76356 	6.73861e-20 1.46369 	-1.75406 	5.84836e-20 1.46478 	-1.74463 	4.96033e-20 1.46739 	-1.73645 	5.16754e-20 1.47005 	-1.72869 	5.41909e-20 1.46954 	-1.70542 	2.95011e-20 1.46937 	-1.68245 	4.7494e-21 1.47229 	-1.66188 	2.0232e-20 1.47689 	-1.64242 	4.53177e-20 1.48283 	-1.62532 	6.85483e-20 1.48282 	-1.62124 	6.74294e-20 1.4829 	-1.61724 	6.75936e-20 1.48349 	-1.61362 	7.51547e-20 1.48409 	-1.61001 	8.27138e-20 1.48471 	-1.60637 	9.03612e-20 1.48742 	-1.59063 	1.39733e-19 1.49039 	-1.57509 	1.88982e-19 1.49363 	-1.55976 	2.38105e-19 1.49881 	-1.54626 	1.68532e-19 1.50422 	-1.53408 	8.22598e-20 1.50588 	-1.51459 	1.55627e-19 1.50838 	-1.49583 	2.03733e-19 1.513 	-1.479 	1.61878e-19 1.51796 	-1.46244 	1.20554e-19 1.52367 	-1.44495 	7.67651e-20 1.52369 	-1.44488 	7.65281e-20 1.52372 	-1.44482 	7.62911e-20 1.52374 	-1.44475 	7.6054e-20 1.52377 	-1.44469 	7.63691e-20 1.5238 	-1.44464 	7.69261e-20 1.5282 	-1.42761 	1.26535e-19 1.53301 	-1.41086 	1.74577e-19 1.53818 	-1.39438 	2.22228e-19 1.54495 	-1.37966 	1.84241e-19 1.55205 	-1.36674 	1.17113e-19 1.55538 	-1.34913 	2.0314e-19 1.55959 	-1.33242 	2.39587e-19 1.56524 	-1.31728 	1.74844e-19 1.57121 	-1.30237 	1.10316e-19 1.57757 	-1.28883 	3.78287e-20 1.5778 	-1.28783 	3.75755e-20 1.57807 	-1.28688 	3.67404e-20 1.57839 	-1.28599 	3.51716e-20 1.57872 	-1.28511 	3.36023e-20 1.57904 	-1.28421 	3.20239e-20 1.58426 	-1.27027 	-1.34739e-20 1.58978 	-1.25653 	-5.88927e-20 1.59559 	-1.24298 	-1.0423e-19 1.60229 	-1.23064 	-8.93435e-20 1.60935 	-1.21991 	-3.0058e-20 1.6138 	-1.20439 	-7.54427e-20 1.61856 	-1.18908 	-1.21241e-19 1.62463 	-1.1757 	-1.03817e-19 1.63193 	-1.16305 	-6.09348e-20 1.63996 	-1.15167 	3.29667e-22 1.64224 	-1.14483 	2.88105e-20 1.64486 	-1.1385 	2.82992e-20 1.64772 	-1.13254 	7.12616e-21 1.65065 	-1.12662 	-1.3996e-20 1.65378 	-1.12044 	-3.61202e-20 1.65742 	-1.11362 	-6.80355e-20 1.66115 	-1.10684 	-9.98392e-20 1.66497 	-1.10013 	-1.31531e-19 1.66901 	-1.09384 	-1.31091e-19 1.67325 	-1.08836 	-7.9881e-20 1.67839 	-1.07462 	-1.11918e-19 1.68442 	-1.06136 	-1.36115e-19 1.69175 	-1.04896 	-1.45552e-19 1.69994 	-1.03835 	-1.35223e-19 1.70802 	-1.02838 	-1.25235e-19 1.7138 	-1.01487 	-2.75535e-19 1.72006 	-1.00218 	-3.50331e-19 1.72695 	-0.990739 	-2.96259e-19 1.73409 	-0.979459 	-2.42695e-19 1.74239 	-0.969383 	-1.1607e-19 1.7445 	-0.965042 	-8.25199e-20 1.74675 	-0.961153 	-8.47368e-20 1.74906 	-0.957398 	-9.66115e-20 1.7514 	-0.95366 	-1.08438e-19 1.75387 	-0.949778 	-1.20724e-19 1.75873 	-0.942423 	-1.24333e-19 1.76371 	-0.935135 	-1.27914e-19 1.76881 	-0.927913 	-1.31468e-19 1.77405 	-0.920981 	-1.29658e-19 1.77939 	-0.915216 	-1.05272e-19 1.78544 	-0.903285 	-1.32882e-19 1.79249 	-0.891928 	-1.44781e-19 1.80043 	-0.881075 	-1.43554e-19 1.80875 	-0.872008 	-1.02969e-19 1.81703 	-0.863477 	-6.09436e-20 1.82364 	-0.851785 	-1.64902e-19 1.83051 	-0.84026 	-2.66983e-19 1.83767 	-0.830567 	-2.25669e-19 1.84589 	-0.821461 	-1.27943e-19 1.85457 	-0.813016 	4.39569e-23 1.86119 	-0.80246 	1.42235e-22 1.86796 	-0.793536 	1.07623e-22 1.87493 	-0.784756 	6.89884e-23 1.88209 	-0.776076 	2.99245e-23 1.89047 	-0.766307 	-1.50417e-23 1.89085 	-0.76589 	7.10296e-22 1.89123 	-0.765473 	1.43516e-21 1.89161 	-0.765057 	2.15954e-21 1.89199 	-0.764641 	2.88345e-21 1.89236 	-0.764307 	4.22743e-22 1.89984 	-0.754852 	-2.52801e-20 1.90763 	-0.745569 	-4.71494e-20 1.91564 	-0.736397 	-6.88403e-20 1.92388 	-0.727347 	-8.98844e-20 1.93178 	-0.720359 	-3.12005e-20 1.93867 	-0.710403 	-2.113e-20 1.94624 	-0.700887 	-1.39302e-20 1.95462 	-0.691903 	-1.04169e-20 1.96279 	-0.684631 	-1.59863e-20 1.97093 	-0.677763 	-2.24513e-20 1.97824 	-0.668056 	5.39396e-20 1.98578 	-0.658451 	1.30443e-19 1.99321 	-0.650363 	1.32358e-19 2.00152 	-0.643417 	6.57219e-20 2.00986 	-0.636674 	1.63237e-22 2.01757 	-0.627222 	9.70814e-23 2.0251 	-0.618845 	-1.11799e-20 2.03252 	-0.611304 	-3.10255e-20 2.04012 	-0.603842 	-5.08473e-20 2.04859 	-0.597203 	-6.3878e-20 2.0555 	-0.589498 	-1.06449e-19 2.06203 	-0.582988 	-1.10005e-19 2.06869 	-0.576536 	-1.1362e-19 2.07549 	-0.57014 	-1.17294e-19 2.08346 	-0.56286 	-1.21582e-19 2.08422 	-0.562194 	-1.22767e-19 2.08498 	-0.561529 	-1.23951e-19 2.08575 	-0.560864 	-1.25135e-19 2.08652 	-0.5602 	-1.26319e-19 2.08722 	-0.559661 	-1.22306e-19 2.09468 	-0.55236 	-9.43295e-20 2.10237 	-0.545202 	-6.50864e-20 2.11024 	-0.538114 	-3.58811e-20 2.11828 	-0.531094 	-6.7138e-21 2.12555 	-0.525603 	1.7922e-22 2.1327 	-0.517838 	6.74856e-20 2.14053 	-0.510856 	8.6392e-20 2.14854 	-0.503964 	1.0353e-19 2.15619 	-0.497887 	8.43342e-20 2.16321 	-0.492968 	1.49072e-20 2.17059 	-0.485446 	-5.50322e-20 2.1782 	-0.478072 	-1.18729e-19 2.18627 	-0.471431 	-1.34999e-19 2.19319 	-0.466566 	-6.72693e-20 2.20017 	-0.461785 	-7.25037e-23 2.20775 	-0.454505 	-3.96022e-23 2.21551 	-0.447283 	-6.87283e-24 2.22263 	-0.441419 	0 2.22947 	-0.436701 	0 2.23638 	-0.432058 	0 2.24413 	-0.42502 	0 2.2518 	-0.418301 	0 2.2583 	-0.413066 	0 2.265 	-0.40829 	-1.01511e-20 2.2718 	-0.403785 	-2.51728e-20 2.27969 	-0.396986 	-6.23725e-21 2.2866 	-0.391349 	-6.35122e-21 2.2931 	-0.386298 	-1.58171e-20 2.29972 	-0.381312 	-2.6744e-20 2.30639 	-0.376945 	-6.64852e-20 2.3141 	-0.370631 	-2.84737e-20 2.32045 	-0.36573 	-3.02631e-20 2.32692 	-0.360862 	-3.20243e-20 2.33351 	-0.356027 	-3.37576e-20 2.3401 	-0.35151 	-4.64706e-20 2.34635 	-0.346646 	-3.69117e-20 2.35196 	-0.34243 	-3.83628e-20 2.35766 	-0.338238 	-3.97924e-20 2.36346 	-0.33407 	-4.12006e-20 2.37031 	-0.329248 	-4.28145e-20 2.37083 	-0.328894 	-4.26966e-20 2.37135 	-0.328539 	-4.25788e-20 2.37187 	-0.328185 	-4.24611e-20 2.37239 	-0.327831 	-4.23437e-20 2.37285 	-0.32753 	-4.25207e-20 2.37901 	-0.32294 	-4.92067e-20 2.38528 	-0.318404 	-5.37559e-20 2.39165 	-0.313896 	-5.82281e-20 2.39813 	-0.309416 	-6.26238e-20 2.40377 	-0.305688 	-3.89668e-20 2.4101 	-0.300972 	-7.51598e-20 2.41626 	-0.296612 	-8.72929e-20 2.42253 	-0.292277 	-9.93672e-20 2.4289 	-0.287967 	-1.11383e-19 2.43354 	-0.28498 	-7.13066e-20 2.44012 	-0.280196 	-1.18581e-19 2.44616 	-0.276009 	-1.21108e-19 2.4523 	-0.271845 	-1.23588e-19 2.45819 	-0.26794 	-1.19e-19 2.46216 	-0.265376 	-7.53459e-20 2.46877 	-0.260759 	-1.17874e-19 2.47494 	-0.256554 	-1.2801e-19 2.48094 	-0.252558 	-1.22405e-19 2.48588 	-0.249297 	-9.47999e-20 2.48962 	-0.246838 	-4.3199e-20 2.4962 	-0.242424 	4.31574e-20 2.50259 	-0.238204 	1.03851e-19 2.50843 	-0.234375 	1.09347e-19 2.51241 	-0.231686 	5.0368e-20 2.5159 	-0.22933 	-2.66969e-20 2.52244 	-0.225116 	-1.75936e-20 2.52908 	-0.220921 	-8.50011e-21 2.5346 	-0.217336 	8.66907e-21 2.53778 	-0.215069 	2.59572e-20 2.54101 	-0.212814 	4.32202e-20 2.54749 	-0.208796 	-4.33231e-20 2.55407 	-0.204794 	-1.29879e-19 2.55906 	-0.201572 	-1.41244e-19 2.56198 	-0.199405 	-7.10834e-20 2.56495 	-0.197249 	-1.02121e-21 2.57135 	-0.193422 	-1.0761e-22 2.57786 	-0.189609 	7.85192e-22 2.58236 	-0.186723 	-1.56709e-20 2.58502 	-0.184655 	-4.94171e-20 2.58773 	-0.182596 	-8.31384e-20 2.59404 	-0.178955 	-4.76831e-20 2.60045 	-0.175328 	-1.22435e-20 2.60452 	-0.172752 	-8.54655e-21 2.60692 	-0.170779 	-2.593e-20 2.60935 	-0.168815 	-4.32977e-20 2.61557 	-0.165357 	-2.59873e-20 2.62187 	-0.161913 	-8.70952e-21 2.62548 	-0.159635 	-9.45396e-21 2.62767 	-0.157739 	-2.60534e-20 2.62984 	-0.155867 	-4.33786e-20 2.63595 	-0.152587 	-1.64885e-19 2.6416 	-0.149532 	-2.61793e-19 2.64504 	-0.147373 	-2.57102e-19 2.64731 	-0.145494 	-1.64746e-19 2.64921 	-0.143713 	-4.33591e-20 2.6552 	-0.140606 	-2.59813e-20 2.66021 	-0.137899 	-8.62103e-21 2.66349 	-0.135855 	8.70881e-21 2.66584 	-0.134008 	2.13075e-20 2.66748 	-0.132315 	3.02495e-20 2.67335 	-0.129377 	9.13174e-20 2.67774 	-0.126979 	1.18692e-19 2.68085 	-0.125047 	1.17018e-19 2.68329 	-0.123244 	9.21093e-20 2.68467 	-0.121638 	3.16735e-20 2.69041 	-0.118863 	2.32316e-20 2.69421 	-0.11674 	1.48059e-20 2.69716 	-0.114916 	6.38533e-21 2.69969 	-0.113167 	0 2.70081 	-0.111644 	0 2.70642 	-0.109028 	0 2.70967 	-0.107149 	1.47189e-20 2.71245 	-0.10543 	3.25492e-20 2.71507 	-0.103742 	5.03643e-20 2.71594 	-0.102301 	6.81061e-20 2.72141 	-0.0998379 	1.90102e-19 2.72413 	-0.0981753 	1.93621e-19 2.72675 	-0.0965569 	1.91094e-19 2.72941 	-0.0949418 	1.88617e-19 2.73008 	-0.0935744 	7.02129e-20 2.73522 	-0.0913114 	5.31989e-20 2.73763 	-0.0897877 	3.62381e-20 2.74009 	-0.0882668 	1.9269e-20 2.74259 	-0.0867486 	2.2919e-21 2.74327 	-0.0854326 	1.46995e-20 2.74795 	-0.0833864 	-4.34178e-24 2.75021 	-0.081957 	-2.98876e-23 2.75251 	-0.0805299 	-5.54232e-23 2.75484 	-0.0791053 	-8.09487e-23 2.75553 	-0.0778449 	6.38967e-21 2.75979 	-0.0759938 	-5.08108e-20 2.7619 	-0.074655 	-4.95116e-20 2.76404 	-0.0733183 	-4.82399e-20 2.76622 	-0.0719836 	-4.69956e-20 2.76691 	-0.0707819 	-5.64425e-21 2.77078 	-0.0691063 	8.55948e-23 2.77274 	-0.0678545 	6.04888e-23 2.77473 	-0.0666046 	3.53729e-23 2.77676 	-0.0653564 	1.02474e-23 2.77744 	-0.0642154 	0 2.78094 	-0.0626978 	1.11894e-20 2.78276 	-0.0615295 	3.75126e-20 2.7846 	-0.0603628 	6.38271e-20 2.78648 	-0.0591976 	9.01329e-20 2.78716 	-0.0581185 	1.07495e-19 2.79032 	-0.0567431 	1.73101e-19 2.792 	-0.0556548 	1.72022e-19 2.79371 	-0.0545677 	1.70972e-19 2.79545 	-0.0534819 	1.69949e-19 2.7961 	-0.0524653 	1.02484e-19 2.79896 	-0.0512181 	8.75801e-20 2.8005 	-0.0502061 	5.31467e-20 2.80208 	-0.0491953 	1.87079e-20 2.80368 	-0.0481855 	-1.57363e-20 2.80431 	-0.047231 	-4.66901e-20 2.80689 	-0.0460995 	-9.02128e-20 2.8083 	-0.0451605 	-8.90049e-20 2.80975 	-0.0442223 	-8.78307e-20 2.81122 	-0.0432851 	-8.66904e-20 2.81183 	-0.0423921 	-3.70496e-20 2.81414 	-0.0413651 	-4.95367e-20 2.81544 	-0.0404955 	-3.17161e-20 2.81676 	-0.0396266 	-1.39133e-20 2.81811 	-0.0387585 	3.87156e-21 2.81868 	-0.0379258 	4.31037e-20 2.82076 	-0.0369935 	4.98615e-20 2.82195 	-0.0361899 	6.73325e-20 2.82315 	-0.0353869 	8.47951e-20 2.82438 	-0.0345846 	1.0225e-19 2.82491 	-0.0338106 	1.22065e-19 2.82679 	-0.0329641 	1.46229e-19 2.82786 	-0.0322232 	1.37007e-19 2.82895 	-0.0314827 	1.27805e-19 2.83007 	-0.0307429 	1.18625e-19 2.83056 	-0.0300259 	8.1688e-20 2.83225 	-0.0292572 	5.80644e-20 2.83322 	-0.0285757 	3.23163e-20 2.83421 	-0.0278945 	6.56643e-21 2.83522 	-0.0272139 	-1.91853e-20 2.83565 	-0.0265518 	-4.10461e-20 2.83718 	-0.025854 	-5.61668e-20 2.83805 	-0.0252286 	-3.8393e-20 2.83894 	-0.0246035 	-2.06452e-20 2.83985 	-0.0239789 	-2.92342e-21 2.84023 	-0.0233694 	4.84832e-20 2.84161 	-0.0227362 	1.02324e-19 2.8424 	-0.0221638 	1.10005e-19 2.8432 	-0.0215917 	1.17729e-19 2.84401 	-0.0210199 	1.25496e-19 2.84433 	-0.0204608 	8.86217e-20 2.84558 	-0.0198866 	7.17981e-20 2.84628 	-0.0193641 	6.32544e-20 2.847 	-0.0188419 	5.47066e-20 2.84773 	-0.0183199 	4.61547e-20 2.84798 	-0.0178086 	3.76055e-20 2.84913 	-0.0172884 	1.44049e-20 2.84975 	-0.0168129 	1.47524e-20 2.85038 	-0.0163376 	1.50774e-20 2.85103 	-0.0158625 	1.53798e-20 2.85122 	-0.0153964 	4.14741e-20 2.85227