# vtk DataFile Version 2.0
track0
ASCII
DATASET POLYDATA
POINTS 12278 float
-0.0205 0.001 1e-05
-0.02052 0.000999216 1e-05
-0.02054 0.000998592 1e-05
-0.02056 0.000998126 1e-05
-0.02058 0.000997818 1e-05
-0.0206 0.000997665 1e-05
-0.0205 0.00367778 1e-05
-0.02052 0.00367703 1e-05
-0.02054 0.00367643 1e-05
-0.02056 0.00367599 1e-05
-0.02058 0.00367569 1e-05
-0.0206 0.00367554 1e-05
-0.0205 0.00635556 1e-05
-0.02052 0.00635527 1e-05
-0.02054 0.00635505 1e-05
-0.02056 0.00635488 1e-05
-0.02058 0.00635476 1e-05
-0.0206 0.00635471 1e-05
-0.0205 0.00903333 1e-05
-0.02052 0.00903311 1e-05
-0.02054 0.00903293 1e-05
-0.02056 0.0090328 1e-05
-0.02058 0.00903271 1e-05
-0.0206 0.00903266 1e-05
-0.0205 0.0117111 1e-05
-0.02052 0.0117111 1e-05
-0.02054 0.011711 1e-05
-0.02056 0.011711 1e-05
-0.02058 0.011711 1e-05
-0.0206 0.011711 1e-05
-0.0205 0.0143889 1e-05
-0.02052 0.014389 1e-05
-0.02054 0.014389 1e-05
-0.02056 0.0143891 1e-05
-0.02058 0.0143891 1e-05
-0.0206 0.0143891 1e-05
-0.0205 0.0170667 1e-05
-0.02052 0.017067 1e-05
-0.02054 0.0170672 1e-05
-0.02056 0.0170674 1e-05
-0.02058 0.0170675 1e-05
-0.0206 0.0170676 1e-05
-0.0205 0.0197444 1e-05
-0.02052 0.019745 1e-05
-0.02054 0.0197454 1e-05
-0.02056 0.0197457 1e-05
-0.02058 0.0197459 1e-05
-0.0206 0.019746 1e-05
-0.0205 0.0224222 1e-05
-0.02052 0.022423 1e-05
-0.02054 0.0224236 1e-05
-0.02056 0.0224241 1e-05
-0.02058 0.0224244 1e-05
-0.0206 0.0224245 1e-05
-0.0205 0.0251 1e-05
-0.02052 0.0251003 1e-05
-0.02054 0.0251005 1e-05
-0.02056 0.0251007 1e-05
-0.02058 0.0251008 1e-05
-0.0206 0.0251008 1e-05
-0.0205 0.001 1e-05
-0.0203632 0.00100536 1e-05
-0.0202266 0.00101331 1e-05
-0.0200901 0.00102296 1e-05
-0.0200427 0.00102682 1e-05
-0.0198376 0.00104418 1e-05
-0.0196338 0.00107322 1e-05
-0.0194327 0.00111734 1e-05
-0.0192368 0.00118024 1e-05
-0.0190172 0.00124951 1e-05
-0.0189002 0.00128348 1e-05
-0.0187827 0.00131598 1e-05
-0.0186649 0.001347 1e-05
-0.0185469 0.001377 1e-05
-0.0183807 0.00141936 1e-05
-0.0182041 0.00146458 1e-05
-0.0180267 0.00150692 1e-05
-0.0178487 0.0015464 1e-05
-0.0176703 0.00158389 1e-05
-0.0174976 0.00161991 1e-05
-0.0172846 0.00166394 1e-05
-0.0170715 0.00170741 1e-05
-0.0168583 0.00175029 1e-05
-0.0166449 0.00179219 1e-05
-0.0163945 0.00184007 1e-05
-0.0163234 0.00185324 1e-05
-0.0162522 0.00186629 1e-05
-0.016181 0.00187921 1e-05
-0.0161097 0.00189201 1e-05
-0.0160387 0.0019046 1e-05
-0.0157586 0.0019535 1e-05
-0.0154779 0.00199931 1e-05
-0.0151968 0.00204225 1e-05
-0.0149154 0.00208283 1e-05
-0.0146381 0.00212134 1e-05
-0.0143838 0.00215527 1e-05
-0.0141293 0.00218766 1e-05
-0.0138747 0.00221855 1e-05
-0.0136198 0.00224797 1e-05
-0.0132934 0.00228369 1e-05
-0.0132791 0.00228515 1e-05
-0.0132648 0.0022866 1e-05
-0.0132504 0.00228805 1e-05
-0.0132361 0.0022895 1e-05
-0.0132214 0.00229098 1e-05
-0.0129776 0.00231543 1e-05
-0.0127337 0.00233865 1e-05
-0.0124897 0.00236061 1e-05
-0.0122456 0.0023813 1e-05
-0.0120025 0.00240058 1e-05
-0.0117547 0.00241909 1e-05
-0.0115067 0.00243627 1e-05
-0.0112587 0.00245231 1e-05
-0.0110106 0.00246734 1e-05
-0.0107632 0.00248136 1e-05
-0.0105252 0.00249391 1e-05
-0.0102872 0.00250547 1e-05
-0.0100491 0.00251602 1e-05
-0.00981105 0.00252575 1e-05
-0.00957337 0.00253472 1e-05
-0.00934491 0.00254261 1e-05
-0.00911643 0.00254974 1e-05
-0.00888792 0.00255611 1e-05
-0.0086594 0.00256172 1e-05
-0.00843108 0.00256669 1e-05
-0.00821175 0.00257085 1e-05
-0.00799241 0.00257439 1e-05
-0.00777306 0.00257731 1e-05
-0.0075537 0.00257953 1e-05
-0.00733443 0.00258115 1e-05
-0.00712387 0.00258213 1e-05
-0.0069133 0.00258256 1e-05
-0.00670273 0.00258244 1e-05
-0.00649216 0.00258163 1e-05
-0.0062816 0.00258019 1e-05
-0.00607944 0.0025782 1e-05
-0.0058773 0.00257567 1e-05
-0.00567516 0.00257258 1e-05
-0.00547303 0.00256876 1e-05
-0.00527083 0.00256421 1e-05
-0.00507675 0.00255914 1e-05
-0.00488269 0.00255344 1e-05
-0.00468865 0.00254713 1e-05
-0.00449464 0.00253999 1e-05
-0.00430044 0.00253193 1e-05
-0.00411412 0.00252331 1e-05
-0.00392784 0.0025139 1e-05
-0.00374159 0.00250371 1e-05
-0.0035554 0.00249257 1e-05
-0.00336883 0.00248018 1e-05
-0.00318995 0.00246714 1e-05
-0.00301115 0.00245302 1e-05
-0.00283245 0.00243777 1e-05
-0.00265386 0.00242124 1e-05
-0.00247443 0.00240317 1e-05
-0.0023027 0.00238429 1e-05
-0.00213114 0.00236387 1e-05
-0.00195982 0.00234157 1e-05
-0.00178875 0.00231742 1e-05
-0.00161577 0.00229109 1e-05
-0.00161563 0.00229107 1e-05
-0.00161549 0.00229105 1e-05
-0.00161535 0.00229102 1e-05
-0.00161521 0.002291 1e-05
-0.00161507 0.00229098 1e-05
-0.00145034 0.00226408 1e-05
-0.00128601 0.00223482 1e-05
-0.00112211 0.00220328 1e-05
-0.00095865 0.0021695 1e-05
-0.000791418 0.0021324 1e-05
-0.000633135 0.00209429 1e-05
-0.000475556 0.00205337 1e-05
-0.000318719 0.00200968 1e-05
-0.000162834 0.00196271 1e-05
0 0.00190956 1e-05
3.73668e-05 0.00189635 1e-05
7.46334e-05 0.00188287 1e-05
0.000111801 0.00186911 1e-05
0.000148872 0.00185509 1e-05
0.000179198 0.00184338 1e-05
0.000249036 0.00181595 1e-05
0.000318463 0.0017875 1e-05
0.000387466 0.00175803 1e-05
0.000456028 0.00172755 1e-05
0.000528387 0.00169418 1e-05
0.000634886 0.00164321 1e-05
0.000740278 0.00158998 1e-05
0.00084451 0.00153451 1e-05
0.000947621 0.00147699 1e-05
0.00101998 0.00143469 1e-05
0.00102816 0.00142974 1e-05
0.00103633 0.00142478 1e-05
0.00104449 0.00141981 1e-05
0.00105265 0.00141482 1e-05
0.00106088 0.00140976 1e-05
0.00116821 0.00134358 1e-05
0.00127404 0.00127502 1e-05
0.00137827 0.00120407 1e-05
0.00148099 0.00113094 1e-05
0.00159678 0.00104511 1e-05
0.00159693 0.001045 1e-05
0.00159708 0.00104488 1e-05
0.00159722 0.00104477 1e-05
0.00159737 0.00104465 1e-05
0.00159752 0.00104454 1e-05
0.0016922 0.000970956 1e-05
0.00178549 0.000895606 1e-05
0.00187729 0.000818456 1e-05
0.00196768 0.000739652 1e-05
0.00203808 0.000676368 1e-05
0.00205813 0.000657893 1e-05
0.0020781 0.000639329 1e-05
0.00209798 0.000620675 1e-05
0.0021178 0.000601958 1e-05
0.00213833 0.00058246 1e-05
0.00219148 0.000531627 1e-05
0.00224413 0.000480277 1e-05
0.00229627 0.000428401 1e-05
0.00234787 0.000375994 1e-05
0.00239418 0.000328255 1e-05
0.00245201 0.00026781 1e-05
0.00250921 0.000206766 1e-05
0.00256578 0.000145139 1e-05
0.00262184 8.30461e-05 1e-05
0.00268334 1.37439e-05 1e-05
0.00268573 1.09951e-05 1e-05
0.00268812 8.2453e-06 1e-05
0.00269051 5.49447e-06 1e-05
0.0026929 2.74261e-06 1e-05
0.00269528 0 1e-05
0.00275917 -7.37368e-05 1e-05
0.00282245 -0.000148005 1e-05
0.00288509 -0.000222813 1e-05
0.00294707 -0.000298173 1e-05
0.00300414 -0.000368654 1e-05
0.00304983 -0.000425915 1e-05
0.00309521 -0.000483422 1e-05
0.00314028 -0.000541171 1e-05
0.0031851 -0.000599114 1e-05
0.00323259 -0.000661068 1e-05
0.00325065 -0.000684874 1e-05
0.00326866 -0.000708719 1e-05
0.00328662 -0.000732604 1e-05
0.00330452 -0.000756529 1e-05
0.00332208 -0.00078009 1e-05
0.00339022 -0.000871878 1e-05
0.00345776 -0.000964108 1e-05
0.00352468 -0.00105679 1e-05
0.00359105 -0.00114986 1e-05
0.00365392 -0.00123896 1e-05
0.00368035 -0.00127683 1e-05
0.00370672 -0.00131475 1e-05
0.003733 -0.00135273 1e-05
0.00375924 -0.00139074 1e-05
0.00378611 -0.00142979 1e-05
0.0038301 -0.00149392 1e-05
0.00387389 -0.00155821 1e-05
0.00391745 -0.00162264 1e-05
0.00396078 -0.00168722 1e-05
0.00400295 -0.00175044 1e-05
0.00407115 -0.00185325 1e-05
0.00413893 -0.00195634 1e-05
0.00420628 -0.00205971 1e-05
0.00427335 -0.00216327 1e-05
0.00434393 -0.00227292 1e-05
0.00434999 -0.0022824 1e-05
0.00435604 -0.00229188 1e-05
0.00436209 -0.00230136 1e-05
0.00436814 -0.00231084 1e-05
0.00437417 -0.0023203 1e-05
0.00445501 -0.00244725 1e-05
0.0045354 -0.00257449 1e-05
0.0046154 -0.00270197 1e-05
0.00469504 -0.00282968 1e-05
0.00477291 -0.00295498 1e-05
0.00479955 -0.00299799 1e-05
0.00482616 -0.00304101 1e-05
0.00485274 -0.00308405 1e-05
0.00487932 -0.0031271 1e-05
0.00490609 -0.00317047 1e-05
0.00496673 -0.0032687 1e-05
0.00502722 -0.00336703 1e-05
0.00508756 -0.00346544 1e-05
0.00514776 -0.00356394 1e-05
0.00520741 -0.00366161 1e-05
0.00526045 -0.00374851 1e-05
0.00531346 -0.00383545 1e-05
0.00536642 -0.0039224 1e-05
0.0054194 -0.00400935 1e-05
0.00547262 -0.00409655 1e-05
0.00551559 -0.00416686 1e-05
0.00555853 -0.0042372 1e-05
0.00560143 -0.00430755 1e-05
0.00564432 -0.00437792 1e-05
0.00568714 -0.00444811 1e-05
0.00575842 -0.00456487 1e-05
0.00582975 -0.0046816 1e-05
0.00590113 -0.00479831 1e-05
0.00597264 -0.00491492 1e-05
0.00604356 -0.00503011 1e-05
0.0060798 -0.00508874 1e-05
0.00611605 -0.00514736 1e-05
0.00615231 -0.00520598 1e-05
0.00618859 -0.00526459 1e-05
0.00622498 -0.00532326 1e-05
0.00630377 -0.00545006 1e-05
0.00638275 -0.00557674 1e-05
0.00646192 -0.0057033 1e-05
0.00654137 -0.00582969 1e-05
0.00661893 -0.00595227 1e-05
0.0066628 -0.00602115 1e-05
0.00670673 -0.00609 1e-05
0.0067507 -0.00615882 1e-05
0.00679477 -0.00622759 1e-05
0.00683921 -0.00629671 1e-05
0.00691112 -0.00640818 1e-05
0.00698329 -0.00651948 1e-05
0.00705572 -0.00663061 1e-05
0.00712843 -0.00674155 1e-05
0.00719878 -0.00684807 1e-05
0.00726942 -0.00695427 1e-05
0.00734028 -0.00706031 1e-05
0.00741137 -0.0071662 1e-05
0.00748277 -0.00727189 1e-05
0.00755569 -0.00737909 1e-05
0.00760118 -0.00744547 1e-05
0.0076468 -0.00751177 1e-05
0.00769254 -0.00757798 1e-05
0.00773842 -0.0076441 1e-05
0.00778313 -0.00770821 1e-05
0.00790091 -0.0078762 1e-05
0.00801946 -0.00804365 1e-05
0.00813878 -0.00821055 1e-05
0.0082591 -0.00837673 1e-05
0.00837203 -0.00853066 1e-05
0.00837965 -0.0085409 1e-05
0.00838727 -0.00855115 1e-05
0.0083949 -0.00856139 1e-05
0.00840253 -0.00857162 1e-05
0.00841018 -0.00858189 1e-05
0.00852125 -0.00873067 1e-05
0.00863314 -0.00887883 1e-05
0.00874587 -0.00902635 1e-05
0.00885947 -0.0091732 1e-05
0.00896551 -0.00930841 1e-05
0.00903001 -0.00938959 1e-05
0.00909477 -0.00947057 1e-05
0.00915979 -0.00955132 1e-05
0.00922512 -0.00963184 1e-05
0.0092926 -0.00971438 1e-05
0.0093468 -0.00978014 1e-05
0.0094012 -0.00984573 1e-05
0.00945579 -0.00991117 1e-05
0.00951058 -0.00997643 1e-05
0.0095636 -0.0100392 1e-05
0.00968415 -0.010181 1e-05
[...]
POINT_DATA 12278
 FIELD attributes 2
p 1 12278 float
177015 177097 177169 177233 177287 177331
108948 108967 108983 108997 109009 109020
87755.2 87764.7 87774.1 87783.2 87792.2 87800.6
79937.4 79943.7 79950 79956.1 79962.2 79968.1
77146.5 77155.8 77165 77174.2 77183.4 77192.6
77563.9 77577.5 77591.1 77604.6 77618.2 77631.7
81097.1 81109.5 81121.8 81133.9 81145.8 81157.5
90923.6 90943.3 90962.3 90980.6 90998.2 91015.1
117356 117388 117419 117447 117473 117497
215474 215285 215093 214899 214703 214504
177015 173410 169083 164504 162838 158906 155524 152873 144708 134667 129224 123795 119857 119246 118394 112349 106449 102328 101433 100566 99583.5 98601.3 97174.6 95706.3 93990.7 93624.2 93257.2 92889.7 92408.7 91910.9 89991.4 88187.5 86673.5 85886.1 85109.4 84423.6 83758.9 83109 82457.3 81623.3 81588.4 81559.5 81531.5 81503.4 81474.6 80941.8 80409.5 79877.7 79346.4 78921.3 78495.1 78085.9 77688.3 77312.6 76946.7 76596.7 76246.4 75922.7 75621.2 75320.2 75030.7 74741 74462.5 74199.7 73937.1 73683.4 73429.7 73179.6 72943.5 72707.4 72478.5 72249.6 72019.1 71799.6 71580.4 71366.7 71153.2 70934.6 70723.7 70513.1 70305.9 70099 69886 69673.6 69461.5 69249.5 69038.1 68822.9 68594.9 68367.3 68134.3 67898.7 67654.6 67402 67136.1 66855.8 66542.1 66229.9 65919.3 65606.3 65606 65605.6 65605.2 65604.8 65604.5 65213.3 64827.9 64448.1 64050.1 63570.2 63054.7 62545 61844 61070.9 60257.8 60009.4 59771.3 59544.2 59317.6 59132.1 58575.4 58016.5 57455.6 56982.5 56514.3 55909.8 55307.1 54767.3 54226.2 53841.3 53783.3 53725.2 53670 53622.5 53574.4 53021.2 52460.9 51942.9 51470.6 50924.8 50923.9 50922.9 50922.1 50921.4 50920.7 50493.5 50058.8 49656.3 49320.8 49051.8 48952.6 48853 48782.2 48712.6 48640.1 48451.6 48260.7 48068.1 47923.7 47791.5 47618.9 47450.2 47310.6 47169 47009.7 47003.3 46996.8 46990.3 46984.5 46978.9 46873.7 46761.4 46646.6 46533.4 46426.4 46390.9 46354.1 46314.6 46274.3 46230.5 46210.3 46190 46169.6 46148.4 46127.3 46101.9 46075.2 46038.1 45995.8 45954.3 45956.7 45958.8 45958.1 45957.3 45956.3 45945 45933.3 45921.2 45906.1 45890.9 45900.7 45909.8 45914.3 45918.3 45922 45921.2 45920.3 45919.5 45918.4 45917.3 45930.8 45944.5 45957.1 45967.8 45978.1 45988.4 45998.6 46008.4 46018.1 46027.9 46039.4 46050.8 46062 46073.1 46084 46102.5 46120.8 46139.3 46157.8 46176.4 46185 46193.5 46202.2 46211.3 46220.4 46243.1 46265.8 46289.2 46313.1 46336.8 46344.2 46351.6 46359.3 46367.6 46375.9 46399.1 46422.4 46446.5 46471.8 46496.5 46505.4 46514.3 46524 46534.2 46544.5 46564.1 46583.9 46604.3 46626.2 46647.4 46661.3 46675.2 46690.9 46707.2 46723.8 46735.4 46747 46758.7 46771.4 46783.7 46805.7 46827.8 46853.2 46879.4 46905.3 46906.4 46907.5 46908.9 46910.3 46911.7 46932.8 46954.2 46976 46999.9 47022.3 47031.8 47041.4 47052.4 47063.4 47074.8 47084.5 47094.3 47104.1 47114.5 47124.6 47141.8 47159.2 47178.1 47198 47217.3 47219.9 47222.5 47225.4 47228.3 47231.3 47245.6 47260.1 47274.6 47290.3 47305.2 47318.9 47333.1 47348.5 47364.1 47380.9 47381 47381.1 47381.2 47381.3 47381.4 47396 47410.7 47425.6 47441.5 47456.7 47468.7 47481.3 47494.9 47508.6 47521.7 47522.3 47522.9 47523.6 47524.2 47524.9 47536.7 47548.6 47560.5 47573.1 47585.6 47595.9 47606.2 47617.9 47630 47642 47646.1 47650.4 47655.1 47659.7 47664.6 47670.5 47676.4 47682.2 47688.4 47694.8 47703.6 47712.7 47722.4 47733.3 47743.8 47751.4 47759.5 47768.4 47777.3 47786.5 47788.6 47791 47793.5 47796 47798.7 47804 47809.4 47814.8 47820.3 47826.4 47832.6 47839.2 47846.1 47854.1 47862 47867 47872.1 47878.3 47885 47891.7 47895.3 47899.9 47904.6 47909.2 47914.5 47914.7 47915 47915.2 47915.5 47915.8 47919.9 47924.1 47928.2 47932.3 47937.4 47939.7 47942.2 47945.2 47949.1 47953 47954.1 47955.2 47957.1 47959.9 47962.5 47962.5 47963 47963.9 47964.7 47966.2 47965.3 47965 47964.8 47964.4 47964.1 47964 47964 47964 47964 47964 47962.6 47961.3 47959.9 47958.5 47957.8 47954.6 47952 47949.5 47947.2 47945.4 47941 47936.7 47933 47929.9 47926.8 47921.3 47915.8 47910.8 47906.6 47902.3 47895.6 47889.1 47883 47877.3 47871.8 47864 47856.6 47849.4 47842.1 47835.5 47826.7 47818.4 47810 47801.6 47793.5 47784.9 47776.5 47768.1 47759.6 47749.8 47749 47748.2 47747.5 47746.7 47746 47735.5 47725.1 47714.6 47704.1 47693.8 47682.1 47670.6 47659.1 47647.5 47636.3 47623.3 47610.8 47598.3 47585.8 47573.5 47559.5 47545.9 47532.4 47519 47505.7 47490.9 47476.2 47461.8 47447.5 47433.2 47417.5 47401.7 47386.4 47371.2 47356 47339.5 47322.9 47306.7 47290.6 47274.5 47257.1 47239.8 47222.6 47205.7 47188.8 47170.7 47152.6 47134.5 47116.8 47099 47080.2 47061.4 47042.5 47024 47005.5 46986 46966.5 46947 46927.6 46908.4 46888.3 46868.1 46847.9 46827.8 46807.9 46787.2 46766.4 46745.6 46724.8 46704.2 46682.9 46661.5 46640.1 46618.7 46597.5 46575.7 46553.7 46531.7 46509.7 46488 46465.6 46443.1 46420.6 46398.1 46375.8 46352.9 46329.9 46306.9 46283.8 46261 46237.7 46214.2 46190.7 46167.2 46143.9 46120.1 46096.2 46072.3 46048.4 46024.6 46000.4 45976.1 45951.7 45927.4 45903.2 45878.6 45853.9 45829.2 45804.5 45779.8 45754.9 45729.8 45704.7 45679.7 45654.7 45629.3 45603.9 45578.5 45553.1 45527.8 45502.1 45476.4 45450.7 45425 45399.3 45373.3 45347.3 45321.3 45295.2 45269.2 45243 45216.7 45190.4 45164.1 45137.8 45111.3 45084.7 45058.1 45031.6 45005 44978.2 44951.4 44924.6 44897.8 44871 44843.9 44816.9 44789.8 44762.8 44735.7 44708.4 44681.2 44653.9 44626.6 44599.3 44571.8 44544.3 44516.8 44489.3 44461.8 44434.1 44406.4 44378.7 44351 44323.2 44295.4 44267.4 44239.5 44211.6 44183.7 44155.6 44127.5 44099.4 44071.3 44043.2 44014.9 43986.6 43958.3 43930 43901.7 43873.3 43844.8 43816.3 43787.8 43759.3 43730.7 43702 43673.4 43644.7 43616.1 43587.2 43558.4 43529.6 43500.7 43471.9 43442.9 43413.9 43384.9 43355.9 43326.9 43297.7 43268.6 43239.4 43210.2 43181 43151.7 43122.3 43093 43063.6 43034.3 43004.8 42975.3 42945.7 42916.2 42886.7 42857 42827.3 42797.6 42767.9 42738.2 42708.4 42678.5 42648.7 42618.8 42588.9 42558.9 42528.9 42498.8 42468.8 42438.7 42408.6 42378.4 42348.1 42317.9 42287.7 42257.3 42227 42196.6 42166.2 42135.8 42105.2 42074.7 42044.1 42013.5 41982.9 41952.2 41921.5 41890.7 41860 41829.2 41798.3 41767.4 41736.4 41705.5 41674.5 41643.4 41612.3 41581.2 41550.1 41518.9 41487.6 41456.3 41425 41393.7 41362.3 41330.9 41299.4 41267.8 41236.3 41204.8 41173.1 41141.4 41109.7 41078 41046.2 41014.4 40982.5 40950.6 40918.6 40886.7 40854.6 40822.5 40790.4 40758.3 40726.1 40693.8 40661.5 40629.2 40596.8 40564.4 40532 40499.4 40466.9 40434.3 40401.7 40369 40336.3 40303.5 40270.7 40237.9 40205 40172 40139 40106 40073 40039.8 40006.6 39973.4 39940.2 39906.9 39873.6 39840.1 39806.7 39773.2 39739.7 39706.1 39672.5 39638.8 39605.1 39571.4 39537.5 39503.6 39469.7 39435.8 39401.8 39367.7 39333.6 39299.4 39265.2 39231 39196.7 39162.3 39127.9 39093.5 39059 39024.4 38989.8 38955.1 38920.5 38885.8 38850.9 38816 38781.1 38746.2 38711.3 38676.2 38641 38605.9 38570.7 38535.5 38500.1 38464.7 38429.3 38393.9 38358.4 38322.8 38287.1 38251.4 38215.7 38179.9 38144.1 38108.1 38072.2 38036.2 38000.2 37964.1 37927.8 37891.6 37855.4 37819.1 37782.7 37746.2 37709.7 37673.2 37636.6 37599.9 37563.2 37526.4 37489.6 37452.8 37415.8 37378.8 37341.7 37304.7 37267.6 37230.3 37193 37155.7 37118.3 37080.9 37043.4 37005.8 36968.2 36930.5 36892.8 36855 36817.1 36779.2 36741.3 36703.3 36665.2 36627 36588.8 36550.6 36512.3 36473.9 36435.4 36397 36358.4 36319.9 36281.2 36242.4 36203.6 36164.8 36125.9 36086.9 36047.9 36008.8 35969.7 35930.5 35891.2 35851.8 35812.4 35773 35733.6 35693.9 35654.3 35614.6 35574.9 35535.1 35495.2 35455.2 35415.2 35375.2 35335.1 35294.8 35254.6 35214.3 35173.9 35133.5 35093 35052.4 35011.8 34971.1 34930.4 34889.5 34848.6 34807.7 34766.7 34725.7 34684.5 34643.3 34602 34560.7 34519.4 34477.9 34436.4 34394.8 34353.1 34311.5 34269.7 34227.8 34185.9 34144 34102 34059.8 34017.7 33975.4 33933.1 33890.8 33848.3 33805.9 33763.3 33720.7 33678 33635.2 33592.4 33549.5 33506.6 33463.6 33420.4 33377.3 33334.1 33290.8 33247.5 33204 33160.5 33116.9 33073.3 33029.7 32985.8 32942 32898.1 32854.1 32810.2 32766 32721.8 32677.6 32633.3 32589 32544.5 32500 32455.4 32410.7 32366 32321.2 32276.3 32231.4 32186.4 32141.4 32096.2 32051 32005.7 31960.3 31915 31869.4 31823.9 31778.2 31732.5 31686.8 31640.9 31595 31549 31502.9 31456.8 31410.6 31364.3 31317.9 31271.5 31225.1 31178.5 31131.8 31085.1 31038.3 30991.5 30944.5 30897.6 30850.5 30803.3 30756.2 30708.8 30661.5 30614 30566.5 30519 30471.2 30423.5 30375.7 30327.8 30279.9 30231.8 30183.7 30135.5 30087.3 30039 29990.5 29942 29893.5 29844.8 29796.2 29747.3 29698.5 29649.5 29600.5 29551.5 29502.3 29453 29403.7 29354.3 29304.9 29255.3 29205.6 29155.9 29106.1 29056.3 29006.3 28956.3 28906.2 28856 28805.8 28755.4 28705 28654.5 28603.9 28553.3 28502.5 28451.7 28400.8 28349.8 28298.9 28247.7 28196.4 28145.1 28093.8 28042.4 27990.8 27939.1 27887.4 27835.6 27783.8 27731.8 27679.8 27627.6 27575.5 27523.3 27470.8 27418.3 27365.8 27313.2 27260.6 27207.7 27154.8 27101.9 27048.8 26995.8 26942.5 26889.2 26835.8 26782.3 26728.9 26675.2 26621.4 26567.6 26513.8 26459.9 26405.7 26351.5 26297.3 26243.1 26188.8 26134.2 26079.6 26025 25970.3 25915.6 25860.6 25805.6 25750.6 25695.6 25640.5 25585.2 25529.8 25474.5 25419.1 25363.7 25308 25252.4 25196.8 25141.2 25085.5 25029.6 24973.8 24918.1 24862.4 24806.6 24750.7 24694.9 24639.3 24583.6 24527.9 24472.2 24416.9 24361.8 24306.7 24252 24197.3 24142.4 24087.4 24032.4 23977 23922.3 23873.6 23825 23776.4 23732.6 23683.5 23618.1 23552.6 23487.1 23412.6 23361.4 23331 23301 23271.2 23257 23252.8 23248.7 23244.5 23240.4 23238.8 23236.2 23230.9 23225.7 23220.4 23214.7 23187.7 23160.5 23133.1 23105.4 23061.8 22985.9 22916.9 22848 22779.1 22722.8 22671.7 22615.4 22559.1 22502.7 22440 22372.3 22304.2 22236.1 22168 22099.5 22028.2 21955 21881.7 21808.5 21733.2 21654.9 21575.1 21495.3 21415.5 21334.1 21249.8 21163.7 21077.6 20991.4 20903.4 20812.4 20719.5 20626.5 20533.5 20438.7 20340.6 20240.4 20140.1 20039.7 19937.4 19831.5 19723.3 19615 19506.6 19396.2 19281.8 19164.7 19047.5 18930.2 18810.4 18686.4 18559.7 18432.8 18305.7 18176.3 18042.3 17904.3 17766.1 17627.8 17485.9 17339 17189.3 17039.4 16889.5 16737.2 16579.4 16414.9 16249.9 16084.7 15913.2 15735.5 15557.3 15379.2 15201 15023 14838.3 14638.8 14438.5 14237.4 14022.1 13798.9 13585.8 13373.3 13161.4 12960.1 12751.2 12503.7 12253.9 12002 11712.7 11412.6 11157.2 10904.7 10654.9 10450.2 10237.6 9921.64 9598.06 9265.9 8833.22 8384.23 8071.47 7773.86 7494.27 7349.16 7198.13 6801.65 6357.19 5838.95 5089.58 4311.3 3779.14 3398.23 3250.88 3316.62 3382.93 3361.99 2777.11 1388.15 0