# vtk DataFile Version 2.0
track0
ASCII
DATASET POLYDATA
POINTS 12298 float
-0.0205 0.001 1e-05
-0.02052 0.000999216 1e-05
-0.02054 0.000998592 1e-05
-0.02056 0.000998126 1e-05
-0.02058 0.000997818 1e-05
-0.0206 0.000997665 1e-05
-0.0205 0.00367778 1e-05
-0.02052 0.00367703 1e-05
-0.02054 0.00367643 1e-05
-0.02056 0.00367599 1e-05
-0.02058 0.00367569 1e-05
-0.0206 0.00367554 1e-05
-0.0205 0.00635556 1e-05
-0.02052 0.00635527 1e-05
-0.02054 0.00635505 1e-05
-0.02056 0.00635488 1e-05
-0.02058 0.00635476 1e-05
-0.0206 0.00635471 1e-05
-0.0205 0.00903333 1e-05
-0.02052 0.00903311 1e-05
-0.02054 0.00903293 1e-05
-0.02056 0.0090328 1e-05
-0.02058 0.00903271 1e-05
-0.0206 0.00903266 1e-05
-0.0205 0.0117111 1e-05
-0.02052 0.0117111 1e-05
-0.02054 0.011711 1e-05
-0.02056 0.011711 1e-05
-0.02058 0.011711 1e-05
-0.0206 0.011711 1e-05
-0.0205 0.0143889 1e-05
-0.02052 0.014389 1e-05
-0.02054 0.014389 1e-05
-0.02056 0.0143891 1e-05
-0.02058 0.0143891 1e-05
-0.0206 0.0143891 1e-05
-0.0205 0.0170667 1e-05
-0.02052 0.017067 1e-05
-0.02054 0.0170672 1e-05
-0.02056 0.0170674 1e-05
-0.02058 0.0170675 1e-05
-0.0206 0.0170676 1e-05
-0.0205 0.0197444 1e-05
-0.02052 0.019745 1e-05
-0.02054 0.0197454 1e-05
-0.02056 0.0197457 1e-05
-0.02058 0.0197459 1e-05
-0.0206 0.019746 1e-05
-0.0205 0.0224222 1e-05
-0.02052 0.022423 1e-05
-0.02054 0.0224236 1e-05
-0.02056 0.0224241 1e-05
-0.02058 0.0224244 1e-05
-0.0206 0.0224245 1e-05
-0.0205 0.0251 1e-05
-0.02052 0.0251003 1e-05
-0.02054 0.0251005 1e-05
-0.02056 0.0251007 1e-05
-0.02058 0.0251008 1e-05
-0.0206 0.0251008 1e-05
-0.0205 0.001 1e-05
-0.0203632 0.00100536 1e-05
-0.0202266 0.00101331 1e-05
-0.0200901 0.00102296 1e-05
-0.0200427 0.00102682 1e-05
-0.0198376 0.00104418 1e-05
-0.0196338 0.00107322 1e-05
-0.0194327 0.00111734 1e-05
-0.0192367 0.00118023 1e-05
-0.0190172 0.00124951 1e-05
-0.0189002 0.00128348 1e-05
-0.0187827 0.00131598 1e-05
-0.0186649 0.001347 1e-05
-0.0185468 0.001377 1e-05
-0.0183807 0.00141936 1e-05
-0.018204 0.00146457 1e-05
-0.0180267 0.00150691 1e-05
-0.0178487 0.00154639 1e-05
-0.0176703 0.00158388 1e-05
-0.0174976 0.00161988 1e-05
-0.0172846 0.00166392 1e-05
-0.0170714 0.0017074 1e-05
-0.0168582 0.00175028 1e-05
-0.0166448 0.00179218 1e-05
-0.0163943 0.00184007 1e-05
-0.0163232 0.00185323 1e-05
-0.0162521 0.00186627 1e-05
-0.0161809 0.00187918 1e-05
-0.0161097 0.00189198 1e-05
-0.0160387 0.00190456 1e-05
-0.0157586 0.00195345 1e-05
-0.0154779 0.00199926 1e-05
-0.0151968 0.0020422 1e-05
-0.0149154 0.00208278 1e-05
-0.0146381 0.00212128 1e-05
-0.0143837 0.00215522 1e-05
-0.0141292 0.00218762 1e-05
-0.0138744 0.00221853 1e-05
-0.0136195 0.00224797 1e-05
-0.0132934 0.00228366 1e-05
-0.0132791 0.00228512 1e-05
-0.0132647 0.00228658 1e-05
-0.0132503 0.00228804 1e-05
-0.0132359 0.00228949 1e-05
-0.0132211 0.00229098 1e-05
-0.0129774 0.00231544 1e-05
-0.0127335 0.00233867 1e-05
-0.0124896 0.00236064 1e-05
-0.0122455 0.00238133 1e-05
-0.0120025 0.00240063 1e-05
-0.0117547 0.00241917 1e-05
-0.0115067 0.00243638 1e-05
-0.0112587 0.00245246 1e-05
-0.0110106 0.00246752 1e-05
-0.0107632 0.00248158 1e-05
-0.0105252 0.00249418 1e-05
-0.0102872 0.00250579 1e-05
-0.0100491 0.00251639 1e-05
-0.00981105 0.00252618 1e-05
-0.00957337 0.00253521 1e-05
-0.00934491 0.00254317 1e-05
-0.00911643 0.00255037 1e-05
-0.00888792 0.00255681 1e-05
-0.0086594 0.0025625 1e-05
-0.00843108 0.00256756 1e-05
-0.00821175 0.00257182 1e-05
-0.00799241 0.00257545 1e-05
-0.00777306 0.00257848 1e-05
-0.0075537 0.0025808 1e-05
-0.00733443 0.00258254 1e-05
-0.00712387 0.00258364 1e-05
-0.0069133 0.00258419 1e-05
-0.00670273 0.0025842 1e-05
-0.00649216 0.00258352 1e-05
-0.0062816 0.00258223 1e-05
-0.00607944 0.00258039 1e-05
-0.0058773 0.00257801 1e-05
-0.00567516 0.00257508 1e-05
-0.00547303 0.00257142 1e-05
-0.00527083 0.00256705 1e-05
-0.00507675 0.00256216 1e-05
-0.00488269 0.00255665 1e-05
-0.00468865 0.00255052 1e-05
-0.00449463 0.00254358 1e-05
-0.00430044 0.00253572 1e-05
-0.00411412 0.00252731 1e-05
-0.00392783 0.00251812 1e-05
-0.00374159 0.00250815 1e-05
-0.0035554 0.00249723 1e-05
-0.00336883 0.00248508 1e-05
-0.00318995 0.00247227 1e-05
-0.00301115 0.00245839 1e-05
-0.00283244 0.0024434 1e-05
-0.00265384 0.00242714 1e-05
-0.00247443 0.00240933 1e-05
-0.0023027 0.0023907 1e-05
-0.00213114 0.00237057 1e-05
-0.00195981 0.00234857 1e-05
-0.00178872 0.00232472 1e-05
-0.00161577 0.00229872 1e-05
-0.00160619 0.00229717 1e-05
-0.00159661 0.00229561 1e-05
-0.00158703 0.00229405 1e-05
-0.00157745 0.00229248 1e-05
-0.00156837 0.00229098 1e-05
-0.00141298 0.00226516 1e-05
-0.00125795 0.00223726 1e-05
-0.0011033 0.00220734 1e-05
-0.00094904 0.00217544 1e-05
-0.000791418 0.00214059 1e-05
-0.000633135 0.00210277 1e-05
-0.00047555 0.00206214 1e-05
-0.000318702 0.00201876 1e-05
-0.000162783 0.00197214 1e-05
0 0.00191936 1e-05
4.28891e-05 0.00190429 1e-05
8.5647e-05 0.00188886 1e-05
0.000128275 0.00187307 1e-05
0.000170775 0.00185694 1e-05
0.00020445 0.00184384 1e-05
0.000269238 0.00181818 1e-05
0.000333668 0.00179163 1e-05
0.000397731 0.00176421 1e-05
0.000461414 0.00173592 1e-05
0.000528387 0.00170513 1e-05
0.000634886 0.00165443 1e-05
0.000740282 0.00160149 1e-05
0.000844515 0.00154629 1e-05
0.000947627 0.00148902 1e-05
0.00104043 0.00143499 1e-05
0.00104452 0.00143251 1e-05
0.00104861 0.00143002 1e-05
0.00105269 0.00142753 1e-05
0.00105678 0.00142503 1e-05
0.00106088 0.00142251 1e-05
0.00116821 0.00135664 1e-05
0.00127404 0.00128839 1e-05
0.00137829 0.00121775 1e-05
0.00148099 0.00114489 1e-05
0.00159752 0.00105879 1e-05
0.001601 0.0010561 1e-05
0.00160447 0.0010534 1e-05
0.00160795 0.0010507 1e-05
0.00161142 0.001048 1e-05
0.00161486 0.00104532 1e-05
0.00170933 0.000971603 1e-05
0.00180237 0.000896085 1e-05
0.00189389 0.000818742 1e-05
0.00198401 0.00073976 1e-05
0.00205398 0.000676491 1e-05
0.00207085 0.000660847 1e-05
0.00208766 0.000645138 1e-05
0.00210441 0.000629365 1e-05
0.00212111 0.000613546 1e-05
0.00213833 0.000597158 1e-05
0.00219447 0.000543397 1e-05
0.00225006 0.000489048 1e-05
0.00230505 0.000434102 1e-05
0.00235942 0.000378551 1e-05
0.00240781 0.000328309 1e-05
0.00246292 0.000270225 1e-05
0.00251742 0.000211579 1e-05
0.00257134 0.000152387 1e-05
0.00262476 9.27543e-05 1e-05
0.00268334 2.62432e-05 1e-05
0.00268787 2.09946e-05 1e-05
0.0026924 1.57421e-05 1e-05
0.00269692 1.04858e-05 1e-05
0.00270144 5.2257e-06 1e-05
0.00270593 0 1e-05
0.00276911 -7.37408e-05 1e-05
0.00283164 -0.000148032 1e-05
0.00289351 -0.000222879 1e-05
0.00295468 -0.000298294 1e-05
0.00301085 -0.000368673 1e-05
0.0030552 -0.000425109 1e-05
0.00309923 -0.000481792 1e-05
0.00314295 -0.000538717 1e-05
0.0031864 -0.000595843 1e-05
0.00323259 -0.000657156 1e-05
0.00325091 -0.000681745 1e-05
0.00326918 -0.000706378 1e-05
0.00328738 -0.000731056 1e-05
0.00330553 -0.000755778 1e-05
0.00332329 -0.000780097 1e-05
0.00339006 -0.000871874 1e-05
0.00345618 -0.000964118 1e-05
0.00352162 -0.00105684 1e-05
0.00358648 -0.00114997 1e-05
0.00364767 -0.00123891 1e-05
0.00367536 -0.00127963 1e-05
0.00370295 -0.00132042 1e-05
0.00373044 -0.00136127 1e-05
0.00375787 -0.00140217 1e-05
0.00378611 -0.00144444 1e-05
0.00382681 -0.00150561 1e-05
0.00386729 -0.00156693 1e-05
0.00390755 -0.0016284 1e-05
0.00394758 -0.00169001 1e-05
0.00398647 -0.00175027 1e-05
0.00405797 -0.00186174 1e-05
0.00412889 -0.00197357 1e-05
0.00419924 -0.00208576 1e-05
0.00426918 -0.00219822 1e-05
0.00434393 -0.00231945 1e-05
0.00434399 -0.00231955 1e-05
0.00434405 -0.00231965 1e-05
0.00434411 -0.00231975 1e-05
0.00434418 -0.00231985 1e-05
0.00434424 -0.00231995 1e-05
0.00442173 -0.00244684 1e-05
0.00449875 -0.00257403 1e-05
0.00457528 -0.0027015 1e-05
0.00465131 -0.00282928 1e-05
0.00472533 -0.00295434 1e-05
0.00476148 -0.00301575 1e-05
0.00479756 -0.00307721 1e-05
0.00483356 -0.00313871 1e-05
0.00486952 -0.00320023 1e-05
0.00490609 -0.00326285 1e-05
0.0049525 -0.0033424 1e-05
0.00499877 -0.00342203 1e-05
0.0050449 -0.00350174 1e-05
0.0050909 -0.00358152 1e-05
0.00513639 -0.00366057 1e-05
0.00520363 -0.00377763 1e-05
0.00527073 -0.00389477 1e-05
0.00533766 -0.00401201 1e-05
0.00540457 -0.00412926 1e-05
0.00547262 -0.00424849 1e-05
0.00549524 -0.0042881 1e-05
0.00551783 -0.00432773 1e-05
0.0055404 -0.00436736 1e-05
0.00556296 -0.00440701 1e-05
0.00558546 -0.00444655 1e-05
0.00567708 -0.0046076 1e-05
0.00576863 -0.00476868 1e-05
0.00586013 -0.0049298 1e-05
0.00595176 -0.00509084 1e-05
0.00604356 -0.0052516 1e-05
0.00605152 -0.00526548 1e-05
0.00605948 -0.00527937 1e-05
0.00606743 -0.00529326 1e-05
0.00607539 -0.00530714 1e-05
0.00608335 -0.00532103 1e-05
0.00619047 -0.00550784 1e-05
0.00629781 -0.00569452 1e-05
0.0064054 -0.00588106 1e-05
0.00651344 -0.00606734 1e-05
0.00661893 -0.00624774 1e-05
0.00662435 -0.00625693 1e-05
0.00662977 -0.00626612 1e-05
0.00663519 -0.00627531 1e-05
0.00664061 -0.0062845 1e-05
0.00664603 -0.00629369 1e-05
0.00675658 -0.00648096 1e-05
0.00686769 -0.0066679 1e-05
0.00697938 -0.00685449 1e-05
0.00709181 -0.00704064 1e-05
0.00719878 -0.00721568 1e-05
0.00721851 -0.00724758 1e-05
0.00723825 -0.00727948 1e-05
0.00725801 -0.00731137 1e-05
0.0072778 -0.00734324 1e-05
0.0072977 -0.00737523 1e-05
0.00739479 -0.00753098 1e-05
0.0074925 -0.00768634 1e-05
0.00759085 -0.0078413 1e-05
0.0076899 -0.00799581 1e-05
0.00778313 -0.00813944 1e-05
0.00784065 -0.008227 1e-05
0.00789838 -0.00831442 1e-05
0.00795631 -0.00840171 1e-05
0.00801452 -0.00848881 1e-05
0.00807406 -0.00857728 1e-05
0.00813366 -0.00866519 1e-05
0.00819352 -0.0087529 1e-05
0.00825367 -0.00884043 1e-05
0.00831411 -0.00892775 1e-05
0.00837203 -0.00901078 1e-05
0.00847019 -0.0091504 1e-05
0.00856907 -0.00928951 1e-05
0.00866868 -0.0094281 1e-05
0.00876913 -0.00956608 1e-05
0.00887461 -0.00970903 1e-05
0.00889279 -0.00973333 1e-05
0.008911 -0.00975761 1e-05
0.00892923 -0.00978186 1e-05
0.00894749 -0.0098061 1e-05
0.00896551 -0.00982996 1e-05
0.00908513 -0.00998797 1e-05
0.00920586 -0.0101451 1e-05
0.00932774 -0.0103014 1e-05
0.00945087 -0.0104567 1e-05
0.0095636 -0.0105964 1e-05
[...]
POINT_DATA 12298
 FIELD attributes 2
p 1 12298 float
177902 177984 178056 178119 178173 178218
109836 109854 109870 109885 109897 109907
88645.2 88654.8 88664.1 88673.3 88682.3 88690.7
80830.4 80836.7 80842.9 80849.1 80855.1 80861.1
78042 78051.3 78060.5 78069.7 78078.9 78088.1
78461.7 78475.3 78488.9 78502.4 78516 78529.5
81997.4 82009.8 82022.1 82034.2 82046.1 82057.8
91826.4 91846.1 91865.1 91883.4 91901 91917.9
118260 118293 118323 118351 118377 118401
216379 216189 215997 215803 215607 215409
177902 174296 169969 165391 163725 159793 156410 153760 145594 135553 130110 124681 120743 120132 119280 113235 107336 103214 102319 101452 100469 99486.8 98059.7 96591 94874.7 94508.4 94141.6 93774.2 93293.4 92795.9 90876.1 89072.2 87557.5 86769.8 85992.6 85306.3 84640.9 83990.5 83338.1 82504.4 82469.3 82440.3 82412.1 82383.9 82355 81821.9 81289.2 80757 80225.3 79799.9 79373.2 78963.4 78565.1 78189 77822.5 77471.9 77121 76796.7 76494.6 76192.9 75902.7 75612.4 75333.2 75069.7 74806.5 74552.1 74297.7 74046.9 73810.1 73573.4 73343.8 73114.1 72883.1 72662.8 72442.9 72228.6 72014.5 71795 71583.6 71372.4 71164.7 70957.2 70743.2 70530.4 70317.9 70105.7 69893.9 69677.6 69449.5 69221.9 68989 68754 68510.2 68256.3 67990.9 67712.3 67400.8 67089.7 66780.2 66465.9 66445.1 66420.2 66395 66369.8 66346 65980 65619 65263 64888.8 64439.4 63927.2 63420.7 62742.7 61973.8 61167.9 60885.2 60614.4 60355.8 60098 59893.6 59380.7 58865.9 58349.3 57914.1 57484.3 56884.7 56282.5 55745.6 55208.7 54718.8 54690 54661.1 54633.6 54610 54586.2 54037.9 53483.7 52961.8 52493.3 51948.1 51932.8 51917.4 51903.4 51891.1 51878.9 51455.5 51022.9 50630.5 50295.4 50027.4 49943.9 49860.1 49800.6 49741.9 49681.1 49482.2 49280.6 49077 48923.7 48784.4 48618.1 48456.1 48321.4 48184.7 48031.2 48018.8 48006.4 47994 47982.8 47972.1 47869 47754.8 47638.1 47522.9 47414.2 47377.1 47338.7 47297.6 47255.8 47210.1 47188.5 47166.7 47144.8 47122.1 47099.4 47070.3 47039.8 46998.4 46951.9 46906.4 46906.9 46907 46904.1 46901 46897.7 46884.1 46870.1 46855.6 46838.4 46821 46826 46829.9 46828.7 46826.8 46824 46824 46823.9 46823.9 46823.9 46823.9 46831.7 46839 46845.6 46849.5 46853.1 46864.3 46875.5 46885.9 46896.2 46906.6 46912 46917.2 46922.2 46927 46931.7 46950.3 46968.9 46987.2 47005.6 47024.3 47027.2 47030.1 47033 47036.1 47039.3 47062.5 47085.7 47109.6 47134.1 47158.7 47159.8 47160.9 47162.1 47163.4 47164.7 47190 47215.4 47242.2 47270.3 47298 47298.8 47299.6 47300.5 47301.4 47302.4 47327.1 47352.1 47378.4 47406.9 47434.2 47437.2 47440.2 47443.6 47447.3 47451 47471.6 47492.5 47514.1 47538.1 47560.7 47569.4 47578.1 47588.6 47599.4 47610.5 47622.4 47634.4 47646.6 47659.9 47672.6 47687.5 47702.6 47719.8 47737.4 47755.9 47759.3 47762.7 47766.2 47769.8 47773.4 47791.1 47809.2 47829.1 47850.3 47869.8 47874.7 47879.6 47885.3 47890.9 47896.7 47908.5 47920.5 47932.5 47945.5 47957.8 47971.9 47986.3 48002.2 48018.3 48035.3 48035.3 48035.4 48035.5 48035.6 48035.7 48050.4 48065.3 48080.3 48096.5 48111.7 48122.4 48133.7 48145.9 48158.2 48171.6 48172.8 48173.9 48175.1 48176.3 48177.6 48189.8 48202.5 48215.2 48229 48242.1 48252.4 48263 48274.8 48286.5 48298 48299.4 48300.9 48302.5 48304.1 48305.8 48314.8 48323.8 48332.8 48342.3 48352 48360.6 48369.2 48378.8 48389.6 48399.8 48405.9 48412.8 48420.1 48427.4 48435.5 48436.7 48437.8 48439 48440.2 48441.5 48449 48456.7 48464.4 48472.6 48481.2 48486.9 48492.6 48499.3 48507 48514.4 48518.9 48524.2 48529.9 48535.5 48541.4 48542.4 48543.8 48545.2 48546.5 48548 48551.2 48554.4 48557.6 48560.8 48564.7 48567.5 48570.9 48574.3 48578.5 48582.9 48584.4 48585.9 48588.3 48591.5 48594.7 48594.9 48595.6 48596.9 48598.2 48600.1 48599.4 48599.4 48599.3 48599.3 48599.2 48599.1 48599.1 48599 48599 48598.9 48597.9 48596.9 48595.9 48594.8 48594.3 48591.3 48588.9 48586.6 48584.5 48582.9 48578.6 48574.5 48570.9 48568 48565.1 48559.6 48554.1 48549.3 48545.1 48540.9 48534.3 48527.7 48521.6 48516 48510.5 48502.7 48495.3 48488 48480.7 48474 48465.2 48456.7 48448.3 48439.8 48431.5 48425.1 48418.8 48412.4 48406.1 48399 48395.9 48392.7 48389.6 48386.5 48383.5 48372.7 48362.1 48351.4 48340.8 48330.3 48318.2 48306.5 48294.7 48282.9 48271.5 48258.1 48245.3 48232.5 48219.7 48207.2 48192.9 48178.8 48165 48151.3 48137.7 48122.4 48107.2 48092.4 48077.7 48063.1 48046.9 48030.7 48014.9 47999.3 47983.7 47966.7 47949.6 47932.8 47916.2 47899.7 47881.8 47864 47846.2 47828.7 47811.3 47792.7 47774 47755.3 47737 47718.8 47699.4 47680 47660.5 47641.3 47622.2 47602.1 47582 47561.8 47541.8 47522 47501.2 47480.4 47459.5 47438.7 47418.2 47396.8 47375.3 47353.7 47332.2 47311 47289 47266.9 47244.7 47222.6 47200.7 47178.1 47155.4 47132.6 47109.9 47087.4 47064.3 47041 47017.7 46994.4 46971.3 46947.6 46923.8 46900.1 46876.3 46852.6 46828.4 46804.1 46779.9 46755.6 46731.4 46706.8 46682 46657.3 46632.6 46607.9 46582.8 46557.7 46532.5 46507.4 46482.3 46456.8 46431.2 46405.6 46380.1 46354.6 46328.7 46302.7 46276.8 46250.9 46225 46198.7 46172.4 46146.1 46119.8 46093.6 46067 46040.3 46013.7 45987.1 45960.5 45933.6 45906.6 45879.7 45852.8 45825.9 45807.7 45789.5 45771.3 45753.1 45730.7 45722.5 45714.3 45706.1 45697.9 45689.7 45662.2 45634.7 45607.2 45579.7 45552.2 45524.5 45496.7 45468.9 45441.2 45413.4 45385.4 45357.4 45329.4 45301.4 45273.3 45245.1 45216.8 45188.6 45160.4 45132.1 45103.6 45075.2 45046.7 45018.2 44989.7 44961.1 44932.4 44903.7 44875 44846.3 44817.5 44788.6 44759.7 44730.8 44701.9 44672.9 44643.8 44614.7 44585.6 44556.5 44527.3 44498 44468.8 44439.5 44410.2 44380.8 44351.4 44321.9 44292.5 44263 44233.4 44203.8 44174.2 44144.6 44115 44085.2 44055.4 44025.7 43995.9 43966.1 43936.2 43906.2 43876.3 43846.3 43816.4 43786.3 43756.2 43726.1 43696 43665.8 43635.6 43605.3 43575.1 43544.8 43514.5 43484.1 43453.7 43423.3 43392.9 43362.4 43331.9 43301.3 43270.7 43240.2 43209.6 43178.9 43148.1 43117.4 43086.7 43056 43047.9 43039.8 43031.8 43023.7 43015.8 42993 42970.1 42947.3 42924.4 42901.6 42870.5 42839.5 42808.5 42777.4 42746.4 42715.2 42684 42652.8 42621.6 42590.4 42559.1 42527.8 42496.4 42465.1 42433.7 42402.3 42370.8 42339.3 42307.8 42276.3 42244.6 42213 42181.3 42149.6 42118 42086.2 42054.4 42022.5 41990.7 41958.9 41926.9 41895 41863 41831 41799 41766.9 41734.7 41702.6 41670.5 41638.3 41606 41573.7 41541.4 41509.1 41476.8 41444.3 41411.8 41379.3 41346.9 41314.4 41281.7 41249.1 41216.4 41183.8 41151.1 41118.3 41085.5 41052.6 41019.8 40987 40954 40921 40888 40855 40821.9 40788.8 40755.6 40722.4 40689.2 40656 40622.6 40589.2 40555.9 40522.5 40489.1 40455.5 40422 40388.4 40354.8 40321.2 40287.5 40253.7 40220 40186.2 40152.4 40118.5 40084.5 40050.6 40016.6 39982.6 39948.5 39914.3 39880.1 39846 39811.8 39777.4 39743.1 39708.7 39674.3 39639.9 39605.4 39570.8 39536.2 39501.6 39467 39432.3 39397.5 39362.7 39327.9 39293 39258.1 39223.1 39188 39153 39118 39082.8 39047.5 39012.3 38977.1 38941.8 38906.4 38870.9 38835.5 38800 38764.5 38728.8 38693.1 38657.5 38621.8 38586 38550.1 38514.2 38478.3 38442.4 38406.4 38370.3 38334.1 38298 38261.8 38225.6 38189.2 38152.8 38116.4 38080 38043.5 38006.9 37970.3 37933.6 37897 37860.3 37823.4 37786.5 37749.6 37712.7 37675.7 37638.7 37601.5 37564.4 37527.2 37490 37452.6 37415.2 37377.8 37340.4 37302.9 37265.3 37227.6 37189.9 37152.3 37114.5 37076.6 37038.7 37000.8 36962.8 36924.8 36886.7 36848.5 36810.3 36772 36733.7 36695.3 36656.9 36618.4 36579.9 36541.3 36502.6 36463.9 36425.2 36386.4 36347.5 36308.6 36269.6 36230.5 36191.5 36152.3 36113.1 36073.8 36034.5 35995.1 35955.7 35916.2 35876.6 35837 35797.4 35757.7 35717.9 35678 35638.1 35598.2 35558.2 35518.1 35477.9 35437.7 35397.5 35357.2 35316.8 35276.3 35235.8 35195.3 35154.7 35114 35073.3 35032.5 34991.7 34950.8 34909.8 34868.7 34827.6 34786.5 34745.3 34704 34662.6 34621.2 34579.8 34538.3 34496.6 34455 34413.3 34371.5 34329.7 34287.8 34245.8 34203.8 34161.7 34119.6 34077.3 34035 33992.7 33950.3 33907.8 33865.3 33822.6 33780 33737.3 33694.5 33651.6 33608.7 33565.7 33522.6 33479.6 33436.3 33393.1 33349.8 33306.4 33263 33219.4 33175.8 33132.2 33088.5 33044.8 33000.9 32957 32913 32868.9 32824.9 32780.6 32736.4 32692.1 32647.7 32603.3 32558.7 32514.1 32469.5 32424.8 32380 32335.1 32290.2 32245.2 32200.1 32155 32109.8 32064.5 32019.2 31973.8 31928.3 31882.7 31837.1 31791.4 31745.7 31699.9 31653.9 31608 31561.9 31515.8 31469.7 31423.4 31377 31330.6 31284.2 31237.7 31191 31144.3 31097.6 31050.8 31003.9 30956.9 30909.9 30862.7 30815.5 30768.4 30721 30673.6 30626.1 30578.5 30531 30483.2 30435.4 30387.6 30339.6 30291.7 30243.6 30195.4 30147.2 30098.9 30050.6 30002.1 29953.6 29905 29856.3 29807.7 29758.8 29709.9 29660.9 29611.9 29562.8 29513.6 29464.3 29414.9 29365.5 29316.1 29266.4 29216.8 29167 29117.2 29067.4 29017.3 28967.3 28917.2 28867 28816.8 28766.3 28715.9 28665.4 28614.8 28564.2 28513.3 28462.5 28411.6 28360.6 28309.6 28258.3 28207.1 28155.8 28104.4 28053 28001.3 27949.7 27898 27846.2 27794.4 27742.3 27690.3 27638.1 27585.9 27533.7 27481.2 27428.7 27376.2 27323.6 27270.9 27218 27165.1 27112.2 27059.1 27006.1 26952.8 26899.4 26846 26792.6 26739.1 26685.4 26631.6 26577.8 26523.9 26470 26415.9 26361.7 26307.5 26253.2 26198.9 26144.3 26089.7 26035.1 25980.4 25925.7 25870.7 25815.7 25760.7 25705.6 25650.5 25595.2 25539.8 25484.5 25429.1 25373.7 25318 25262.4 25206.8 25151.1 25095.5 25039.6 24983.8 24928.1 24872.3 24816.6 24760.6 24704.9 24649.2 24593.5 24537.9 24482.1 24426.8 24371.7 24316.6 24261.9 24207.2 24152.2 24097.2 24042.2 23986.8 23932.1 23883.4 23834.8 23786.1 23742.3 23693.2 23627.9 23562.5 23497 23422.4 23371 23340.6 23310.4 23280.6 23265 23261.2 23257.4 23253.6 23249.8 23248.4 23246 23241.2 23236.3 23231.5 23226.3 23199 23171.3 23143.5 23115.4 23071.1 22995.1 22926.2 22857.3 22788.4 22732.2 22681.1 22624.7 22568.4 22512 22449.2 22381.5 22313.4 22245.3 22177.2 22108.7 22037.4 21964.1 21890.9 21817.6 21742.3 21664 21584.2 21504.4 21424.6 21343.2 21258.9 21172.7 21086.6 21000.4 20912.4 20821.4 20728.4 20635.4 20542.4 20447.6 20349.5 20249.2 20148.9 20048.5 19946.1 19840.2 19732 19623.7 19515.2 19404.7 19290.3 19173.3 19056 18938.6 18818.8 18694.7 18568 18441 18313.9 18184.5 18050.3 17912.4 17774.2 17635.7 17493.8 17346.8 17197.1 17047.2 16897.1 16744.8 16586.9 16422.4 16257.4 16092 15920.5 15742.7 15564.5 15386.2 15208 15029.9 14845.1 14645.8 14445.3 14243.9 14028.6 13805.3 13592 13379.4 13167.5 12966.1 12757.1 12510.2 12260.4 12007.7 11718.3 11418.1 11161.8 10909.2 10660.2 10455.4 10242.7 9928.57 9604.89 9270.67 8837.85 8388.73 8073.09 7775.38 7498.5 7353.35 7202.26 6811.36 6366.74 5842.58 5092.93 4314.35 3773.52 3392.43 3253.56 3319.32 3385.65 3380.08 2779.05 1389.11 0