# vtk DataFile Version 2.0
track0
ASCII
DATASET POLYDATA
POINTS 12278 float
-0.0205 0.001 1e-05
-0.02052 0.000999216 1e-05
-0.02054 0.000998592 1e-05
-0.02056 0.000998126 1e-05
-0.02058 0.000997818 1e-05
-0.0206 0.000997665 1e-05
-0.0205 0.00367778 1e-05
-0.02052 0.00367703 1e-05
-0.02054 0.00367643 1e-05
-0.02056 0.00367599 1e-05
-0.02058 0.00367569 1e-05
-0.0206 0.00367554 1e-05
-0.0205 0.00635556 1e-05
-0.02052 0.00635527 1e-05
-0.02054 0.00635505 1e-05
-0.02056 0.00635488 1e-05
-0.02058 0.00635476 1e-05
-0.0206 0.00635471 1e-05
-0.0205 0.00903333 1e-05
-0.02052 0.00903311 1e-05
-0.02054 0.00903293 1e-05
-0.02056 0.0090328 1e-05
-0.02058 0.00903271 1e-05
-0.0206 0.00903266 1e-05
-0.0205 0.0117111 1e-05
-0.02052 0.0117111 1e-05
-0.02054 0.011711 1e-05
-0.02056 0.011711 1e-05
-0.02058 0.011711 1e-05
-0.0206 0.011711 1e-05
-0.0205 0.0143889 1e-05
-0.02052 0.014389 1e-05
-0.02054 0.014389 1e-05
-0.02056 0.0143891 1e-05
-0.02058 0.0143891 1e-05
-0.0206 0.0143891 1e-05
-0.0205 0.0170667 1e-05
-0.02052 0.017067 1e-05
-0.02054 0.0170672 1e-05
-0.02056 0.0170674 1e-05
-0.02058 0.0170675 1e-05
-0.0206 0.0170676 1e-05
-0.0205 0.0197444 1e-05
-0.02052 0.019745 1e-05
-0.02054 0.0197454 1e-05
-0.02056 0.0197457 1e-05
-0.02058 0.0197459 1e-05
-0.0206 0.019746 1e-05
-0.0205 0.0224222 1e-05
-0.02052 0.022423 1e-05
-0.02054 0.0224236 1e-05
-0.02056 0.0224241 1e-05
-0.02058 0.0224244 1e-05
-0.0206 0.0224245 1e-05
-0.0205 0.0251 1e-05
-0.02052 0.0251003 1e-05
-0.02054 0.0251005 1e-05
-0.02056 0.0251007 1e-05
-0.02058 0.0251008 1e-05
-0.0206 0.0251008 1e-05
-0.0205 0.001 1e-05
-0.0203632 0.00100536 1e-05
-0.0202266 0.00101331 1e-05
-0.0200901 0.00102296 1e-05
-0.0200427 0.00102682 1e-05
-0.0198376 0.00104418 1e-05
-0.0196338 0.00107322 1e-05
-0.0194327 0.00111734 1e-05
-0.0192368 0.00118024 1e-05
-0.0190172 0.00124951 1e-05
-0.0189002 0.00128348 1e-05
-0.0187827 0.00131598 1e-05
-0.0186649 0.001347 1e-05
-0.0185469 0.001377 1e-05
-0.0183807 0.00141936 1e-05
-0.0182041 0.00146458 1e-05
-0.0180267 0.00150692 1e-05
-0.0178487 0.0015464 1e-05
-0.0176703 0.00158389 1e-05
-0.0174976 0.00161991 1e-05
-0.0172846 0.00166394 1e-05
-0.0170715 0.00170741 1e-05
-0.0168583 0.00175029 1e-05
-0.0166449 0.00179219 1e-05
-0.0163945 0.00184007 1e-05
-0.0163234 0.00185324 1e-05
-0.0162522 0.00186629 1e-05
-0.016181 0.00187921 1e-05
-0.0161097 0.00189201 1e-05
-0.0160387 0.0019046 1e-05
-0.0157586 0.0019535 1e-05
-0.0154779 0.00199931 1e-05
-0.0151968 0.00204225 1e-05
-0.0149154 0.00208283 1e-05
-0.0146381 0.00212134 1e-05
-0.0143838 0.00215527 1e-05
-0.0141293 0.00218766 1e-05
-0.0138747 0.00221855 1e-05
-0.0136198 0.00224797 1e-05
-0.0132934 0.00228369 1e-05
-0.0132791 0.00228515 1e-05
-0.0132648 0.0022866 1e-05
-0.0132504 0.00228805 1e-05
-0.0132361 0.0022895 1e-05
-0.0132214 0.00229098 1e-05
-0.0129776 0.00231543 1e-05
-0.0127337 0.00233865 1e-05
-0.0124897 0.00236061 1e-05
-0.0122456 0.00238129 1e-05
-0.0120025 0.00240058 1e-05
-0.0117547 0.00241909 1e-05
-0.0115067 0.00243627 1e-05
-0.0112587 0.00245231 1e-05
-0.0110106 0.00246734 1e-05
-0.0107632 0.00248136 1e-05
-0.0105252 0.00249391 1e-05
-0.0102872 0.00250547 1e-05
-0.0100491 0.00251602 1e-05
-0.00981105 0.00252575 1e-05
-0.00957337 0.00253471 1e-05
-0.00934491 0.00254261 1e-05
-0.00911643 0.00254974 1e-05
-0.00888792 0.0025561 1e-05
-0.0086594 0.00256171 1e-05
-0.00843108 0.00256668 1e-05
-0.00821175 0.00257084 1e-05
-0.00799241 0.00257439 1e-05
-0.00777306 0.00257731 1e-05
-0.0075537 0.00257952 1e-05
-0.00733443 0.00258114 1e-05
-0.00712387 0.00258212 1e-05
-0.0069133 0.00258255 1e-05
-0.00670273 0.00258243 1e-05
-0.00649216 0.00258162 1e-05
-0.0062816 0.00258017 1e-05
-0.00607944 0.00257819 1e-05
-0.0058773 0.00257565 1e-05
-0.00567516 0.00257256 1e-05
-0.00547303 0.00256874 1e-05
-0.00527083 0.00256419 1e-05
-0.00507675 0.00255912 1e-05
-0.00488269 0.00255342 1e-05
-0.00468865 0.0025471 1e-05
-0.00449464 0.00253997 1e-05
-0.00430044 0.0025319 1e-05
-0.00411412 0.00252328 1e-05
-0.00392784 0.00251388 1e-05
-0.00374159 0.00250368 1e-05
-0.0035554 0.00249254 1e-05
-0.00336883 0.00248015 1e-05
-0.00318995 0.00246711 1e-05
-0.00301115 0.00245299 1e-05
-0.00283245 0.00243774 1e-05
-0.00265386 0.0024212 1e-05
-0.00247443 0.00240313 1e-05
-0.0023027 0.00238425 1e-05
-0.00213114 0.00236383 1e-05
-0.00195982 0.00234153 1e-05
-0.00178875 0.00231737 1e-05
-0.00161577 0.00229104 1e-05
-0.00161569 0.00229103 1e-05
-0.00161561 0.00229102 1e-05
-0.00161553 0.002291 1e-05
-0.00161545 0.00229099 1e-05
-0.00161537 0.00229098 1e-05
-0.00145058 0.00226407 1e-05
-0.00128619 0.00223481 1e-05
-0.00112223 0.00220325 1e-05
-0.000958711 0.00216946 1e-05
-0.000791418 0.00213235 1e-05
-0.000633135 0.00209424 1e-05
-0.000475556 0.00205331 1e-05
-0.000318719 0.00200962 1e-05
-0.000162835 0.00196265 1e-05
0 0.0019095 1e-05
3.73283e-05 0.0018963 1e-05
7.45567e-05 0.00188282 1e-05
0.000111687 0.00186908 1e-05
0.000148719 0.00185508 1e-05
0.000179021 0.00184337 1e-05
0.000248894 0.00181593 1e-05
0.000318357 0.00178747 1e-05
0.000387394 0.00175798 1e-05
0.00045599 0.00172749 1e-05
0.000528387 0.0016941 1e-05
0.000634886 0.00164312 1e-05
0.000740278 0.00158989 1e-05
0.00084451 0.00153442 1e-05
0.00094762 0.0014769 1e-05
0.00101982 0.00143468 1e-05
0.00102803 0.00142972 1e-05
0.00103624 0.00142474 1e-05
0.00104443 0.00141975 1e-05
0.00105261 0.00141474 1e-05
0.00106088 0.00140966 1e-05
0.00116821 0.00134347 1e-05
0.00127404 0.00127491 1e-05
0.00137827 0.00120395 1e-05
0.00148099 0.00113082 1e-05
0.00159662 0.00104511 1e-05
0.0015968 0.00104497 1e-05
0.00159698 0.00104483 1e-05
0.00159716 0.00104469 1e-05
0.00159734 0.00104455 1e-05
0.00159752 0.00104441 1e-05
0.00169216 0.000970851 1e-05
0.00178541 0.000895528 1e-05
0.00187717 0.000818407 1e-05
0.00196752 0.000739632 1e-05
0.00203791 0.000676366 1e-05
0.00205799 0.000657859 1e-05
0.00207799 0.000639262 1e-05
0.00209791 0.000620575 1e-05
0.00211777 0.000601825 1e-05
0.00213833 0.000582291 1e-05
0.00219144 0.000531491 1e-05
0.00224405 0.000480175 1e-05
0.00229615 0.000428335 1e-05
0.00234772 0.000375964 1e-05
0.002394 0.000328254 1e-05
0.00245187 0.000267771 1e-05
0.0025091 0.000206687 1e-05
0.00256571 0.00014502 1e-05
0.0026218 8.28861e-05 1e-05
0.00268334 1.35337e-05 1e-05
0.00268569 1.08269e-05 1e-05
0.00268805 8.1192e-06 1e-05
0.0026904 5.41048e-06 1e-05
0.00269275 2.70075e-06 1e-05
0.00269509 0 1e-05
0.00275899 -7.37367e-05 1e-05
0.00282227 -0.000148005 1e-05
0.00288491 -0.000222813 1e-05
0.00294688 -0.000298172 1e-05
0.00300395 -0.000368654 1e-05
0.00304968 -0.000425962 1e-05
0.0030951 -0.000483516 1e-05
0.0031402 -0.000541312 1e-05
0.00318506 -0.000599303 1e-05
0.00323259 -0.000661312 1e-05
0.00325061 -0.000685068 1e-05
0.00326858 -0.000708864 1e-05
0.0032865 -0.0007327 1e-05
0.00330437 -0.000756576 1e-05
0.00332189 -0.000780089 1e-05
0.00339003 -0.000871876 1e-05
0.00345758 -0.000964106 1e-05
0.00352449 -0.00105679 1e-05
0.00359087 -0.00114986 1e-05
0.00365373 -0.00123896 1e-05
0.00368021 -0.00127688 1e-05
0.00370661 -0.00131486 1e-05
0.00373293 -0.00135288 1e-05
0.0037592 -0.00139095 1e-05
0.00378611 -0.00143005 1e-05
0.00383007 -0.00149413 1e-05
0.00387381 -0.00155836 1e-05
0.00391734 -0.00162274 1e-05
0.00396064 -0.00168727 1e-05
0.00400277 -0.00175043 1e-05
0.004071 -0.0018533 1e-05
0.00413882 -0.00195644 1e-05
0.00420621 -0.00205986 1e-05
0.00427331 -0.00216346 1e-05
0.00434393 -0.00227318 1e-05
0.00434996 -0.0022826 1e-05
0.00435598 -0.00229203 1e-05
0.004362 -0.00230146 1e-05
0.00436801 -0.00231089 1e-05
0.00437401 -0.0023203 1e-05
0.00445486 -0.00244725 1e-05
0.00453525 -0.00257448 1e-05
0.00461526 -0.00270197 1e-05
0.0046949 -0.00282967 1e-05
0.00477278 -0.00295497 1e-05
0.00479944 -0.00299802 1e-05
0.00482608 -0.00304109 1e-05
0.00485269 -0.00308417 1e-05
0.00487929 -0.00312726 1e-05
0.00490609 -0.00317067 1e-05
0.00496671 -0.00326886 1e-05
0.00502718 -0.00336714 1e-05
0.0050875 -0.00346552 1e-05
0.00514769 -0.00356398 1e-05
0.00520732 -0.00366161 1e-05
0.00526038 -0.00374853 1e-05
0.0053134 -0.00383549 1e-05
0.00536638 -0.00392247 1e-05
0.00541939 -0.00400943 1e-05
0.00547262 -0.00409665 1e-05
0.00551558 -0.00416694 1e-05
0.00555852 -0.00423726 1e-05
0.00560141 -0.00430759 1e-05
0.00564429 -0.00437794 1e-05
0.0056871 -0.00444811 1e-05
0.00575839 -0.00456487 1e-05
0.00582973 -0.00468159 1e-05
0.00590111 -0.00479829 1e-05
0.00597263 -0.00491491 1e-05
0.00604356 -0.00503008 1e-05
0.00607981 -0.00508872 1e-05
0.00611607 -0.00514735 1e-05
0.00615233 -0.00520597 1e-05
0.00618862 -0.00526458 1e-05
0.00622502 -0.00532326 1e-05
0.0063038 -0.00545002 1e-05
0.00638278 -0.00557667 1e-05
0.00646194 -0.0057032 1e-05
0.00654138 -0.00582955 1e-05
0.00661893 -0.00595209 1e-05
0.00666283 -0.00602101 1e-05
0.00670679 -0.0060899 1e-05
0.0067508 -0.00615875 1e-05
0.00679489 -0.00622755 1e-05
0.00683936 -0.00629671 1e-05
0.00691125 -0.00640811 1e-05
0.00698338 -0.00651934 1e-05
0.00705578 -0.00663041 1e-05
0.00712846 -0.00674128 1e-05
0.00719878 -0.00684773 1e-05
0.00726948 -0.00695399 1e-05
0.0073404 -0.00706011 1e-05
0.00741155 -0.00716607 1e-05
0.007483 -0.00727182 1e-05
0.00755599 -0.00737909 1e-05
0.00760142 -0.00744538 1e-05
0.00764698 -0.00751157 1e-05
0.00769266 -0.00757768 1e-05
0.00773847 -0.0076437 1e-05
0.00778313 -0.00770771 1e-05
0.00790091 -0.00787567 1e-05
0.00801946 -0.0080431 1e-05
0.00813878 -0.00820996 1e-05
0.0082591 -0.00837611 1e-05
0.00837203 -0.00853001 1e-05
0.00837975 -0.00854039 1e-05
0.00838747 -0.00855076 1e-05
0.00839519 -0.00856113 1e-05
0.00840292 -0.0085715 1e-05
0.00841067 -0.00858189 1e-05
0.00852164 -0.00873051 1e-05
0.00863343 -0.00887851 1e-05
0.00874606 -0.00902586 1e-05
0.00885956 -0.00917256 1e-05
0.00896551 -0.00930763 1e-05
0.00903014 -0.00938897 1e-05
0.00909504 -0.0094701 1e-05
0.0091602 -0.00955101 1e-05
0.00922567 -0.00963168 1e-05
0.0092933 -0.00971439 1e-05
0.00934736 -0.00977996 1e-05
0.00940162 -0.00984537 1e-05
0.00945607 -0.00991063 1e-05
0.00951071 -0.00997571 1e-05
0.0095636 -0.0100383 1e-05
0.00968415 -0.0101801 1e-05
[...]
POINT_DATA 12278
 FIELD attributes 1
U 3 12278 float
9.72339 	0.381311 	0 9.77871 	0.305049 	0 9.83405 	0.228765 	0 9.8894 	0.152465 	0 9.94476 	0.0761532 	0 10 	0 	0
10.0671 	0.375483 	0 10.0537 	0.300387 	0 10.0403 	0.225271 	0 10.0268 	0.150141 	0 10.0134 	0.0750009 	0 10 	0 	0
10.0364 	0.141572 	0 10.0291 	0.113304 	0 10.0218 	0.085089 	0 10.0145 	0.0569263 	0 10.0071 	0.0288164 	0 10 	0 	0
10.0137 	0.111519 	0 10.011 	0.0892151 	0 10.0082 	0.0669108 	0 10.0055 	0.0446062 	0 10.0027 	0.0223012 	0 10 	0 	0
10.0097 	0.0196534 	0 10.0078 	0.0157227 	0 10.0058 	0.011792 	0 10.0039 	0.00786136 	0 10.0019 	0.00393067 	0 10 	0 	0
10.0102 	-0.0372875 	0 10.0082 	-0.02983 	0 10.0061 	-0.0223725 	0 10.0041 	-0.0149149 	0 10.002 	-0.0074574 	0 10 	0 	0
10.0174 	-0.148996 	0 10.0139 	-0.119197 	0 10.0105 	-0.0893967 	0 10.007 	-0.0595953 	0 10.0035 	-0.0297932 	0 10 	0 	0
10.0362 	-0.265901 	0 10.029 	-0.212721 	0 10.0217 	-0.159534 	0 10.0145 	-0.106342 	0 10.0072 	-0.053146 	0 10 	0 	0
10.0563 	-0.387167 	0 10.045 	-0.309734 	0 10.0338 	-0.23228 	0 10.0225 	-0.15481 	0 10.0112 	-0.0773281 	0 10 	0 	0
8.30133 	-0.114495 	0 8.4287 	-0.091596 	0 8.55659 	-0.0686962 	0 8.68498 	-0.0457957 	0 8.81385 	-0.0228949 	0 8.94315 	0 	0
9.72339 	0.381311 	0 9.5415 	0.555241 	0 9.39671 	0.663651 	0 9.26203 	0.754272 	0 9.2183 	0.780385 	0 8.95344 	1.27614 	0 8.70578 	1.91036 	0 8.48173 	2.72184 	0 8.46724 	2.67123 	0 8.47252 	2.45986 	0 8.50117 	2.35314 	0 8.52498 	2.2443 	0 8.51221 	2.16311 	0 8.42487 	2.14738 	0 8.30214 	2.12559 	0 8.30117 	1.9821 	0 8.28715 	1.83798 	0 8.21181 	1.72569 	0 8.035 	1.67507 	0 7.86306 	1.62575 	0 7.68323 	1.56759 	0 7.50177 	1.50875 	0 7.42793 	1.45839 	0 7.36148 	1.40771 	0 7.27865 	1.34671 	0 7.22249 	1.32376 	0 7.16614 	1.3007 	0 7.10958 	1.27753 	0 7.07928 	1.2544 	0 7.05291 	1.23121 	0 6.97394 	1.13838 	0 6.88841 	1.05226 	0 6.79883 	0.980329 	0 6.71191 	0.932083 	0 6.6228 	0.883658 	0 6.55089 	0.833774 	0 6.49229 	0.787587 	0 6.44246 	0.743855 	0 6.3887 	0.69909 	0 6.31694 	0.642265 	0 6.31477 	0.64017 	0 6.3132 	0.638346 	0 6.31172 	0.636559 	0 6.31023 	0.63477 	0 6.30868 	0.632931 	0 6.27132 	0.597061 	0 6.23151 	0.560862 	0 6.18922 	0.524331 	0 6.1444 	0.487462 	0 6.10943 	0.456251 	0 6.07602 	0.420968 	0 6.04571 	0.390994 	0 6.01701 	0.364549 	0 5.99443 	0.339599 	0 5.97316 	0.315194 	0 5.95246 	0.28906 	0 5.92972 	0.262717 	0 5.91348 	0.241655 	0 5.9034 	0.222651 	0 5.89182 	0.203584 	0 5.87917 	0.183516 	0 5.86498 	0.163349 	0 5.85627 	0.143785 	0 5.85337 	0.127396 	0 5.8492 	0.11098 	0 5.84297 	0.0943448 	0 5.8355 	0.0776682 	0 5.83342 	0.0589655 	0 5.83631 	0.0430911 	0 5.83801 	0.0272171 	0 5.83718 	0.011919 	0 5.83535 	-0.00344798 	0 5.83922 	-0.02255 	0 5.84733 	-0.0400421 	0 5.85426 	-0.0574802 	0 5.85862 	-0.0735477 	0 5.86186 	-0.0895892 	0 5.87122 	-0.110978 	0 5.88469 	-0.132517 	0 5.89666 	-0.153984 	0 5.90652 	-0.173351 	0 5.91509 	-0.192649 	0 5.92941 	-0.218109 	0 5.94829 	-0.247066 	0 5.96529 	-0.275883 	0 5.98123 	-0.302116 	0 5.99553 	-0.3282 	0 6.01457 	-0.359815 	0 6.03867 	-0.40098 	0 6.06027 	-0.441903 	0 6.08261 	-0.480368 	0 6.10482 	-0.520992 	0 6.13012 	-0.567651 	0 6.1546 	-0.619723 	0 6.17873 	-0.679536 	0 6.20612 	-0.738534 	0 6.23747 	-0.811928 	0 6.26494 	-0.884786 	0 6.28859 	-0.957106 	0 6.30871 	-1.02981 	0 6.30872 	-1.02986 	0 6.30873 	-1.02991 	0 6.30875 	-1.02997 	0 6.30876 	-1.03002 	0 6.30877 	-1.03008 	0 6.33257 	-1.12727 	0 6.35112 	-1.22236 	0 6.36453 	-1.31538 	0 6.37529 	-1.41408 	0 6.38857 	-1.53829 	0 6.40638 	-1.66403 	0 6.41793 	-1.78769 	0 6.40581 	-1.93021 	2.62109e-20 6.36945 	-2.07918 	5.37328e-20 6.3193 	-2.23396 	8.12352e-20 6.31109 	-2.2844 	2.34027e-20 6.29891 	-2.33172 	5.85738e-21 6.28255 	-2.37573 	3.12795e-20 6.26564 	-2.41948 	5.73217e-20 6.2513 	-2.45516 	7.91947e-20 6.22491 	-2.55104 	1.78973e-19 6.19656 	-2.64635 	2.82913e-19 6.16628 	-2.74107 	3.90989e-19 6.12012 	-2.82223 	2.7435e-19 6.06357 	-2.90258 	6.24921e-20 5.9836 	-3.02225 	4.9276e-20 5.89844 	-3.13894 	3.61893e-20 5.80157 	-3.23679 	8.57401e-21 5.7003 	-3.3327 	-1.80416e-20 5.62543 	-3.39921 	-3.61681e-20 5.61628 	-3.40853 	-3.596e-20 5.6071 	-3.41783 	-3.5737e-20 5.59784 	-3.42648 	-3.68884e-20 5.58844 	-3.43344 	-4.16977e-20 5.57891 	-3.44047 	-4.65529e-20 5.45901 	-3.53668 	-2.82844e-20 5.3338 	-3.63093 	-9.44311e-21 5.20776 	-3.70787 	1.2862e-22 5.08153 	-3.76677 	-1.79497e-22 4.93258 	-3.83205 	7.7968e-23 4.93232 	-3.8322 	4.46172e-23 4.93205 	-3.83235 	1.12659e-23 4.93181 	-3.83245 	1.97778e-23 4.93157 	-3.83253 	4.96446e-23 4.93134 	-3.83261 	7.95214e-23 4.80564 	-3.88195 	1.13288e-21 4.67585 	-3.92968 	2.49059e-21 4.54894 	-3.96618 	4.21838e-21 4.43132 	-3.98327 	6.34331e-21 4.336 	-3.99564 	8.21388e-21 4.30565 	-4.0033 	1.33626e-20 4.27509 	-4.01089 	1.85493e-20 4.24977 	-4.01261 	9.22526e-21 4.22458 	-4.01397 	-8.28444e-22 4.19828 	-4.01532 	-1.12524e-20 4.12448 	-4.02263 	-6.36146e-20 4.0495 	-4.02941 	-1.15609e-19 3.97349 	-4.03552 	-1.65792e-19 3.90933 	-4.02999 	-1.01561e-19 3.85053 	-4.02461 	-4.30492e-20 3.77294 	-4.02675 	4.18132e-21 3.69545 	-4.02601 	4.20052e-20 3.62355 	-4.01389 	3.42061e-20 3.55057 	-4.00129 	2.6678e-20 3.46851 	-3.9868 	1.86497e-20 3.46519 	-3.98638 	1.92726e-20 3.46186 	-3.98597 	1.98957e-20 3.45853 	-3.98555 	2.05189e-20 3.4554 	-3.98483 	2.10419e-20 3.45234 	-3.984 	2.15237e-20 3.38421 	-3.97197 	1.41274e-20 3.31402 	-3.95781 	7.41928e-21 3.24261 	-3.94295 	7.05842e-22 3.17083 	-3.9159 	6.16674e-21 3.10319 	-3.88912 	1.235e-20 3.06109 	-3.87911 	3.47277e-20 3.01869 	-3.86771 	5.06312e-20 2.97707 	-3.84875 	2.3362e-20 2.93506 	-3.82955 	-3.85033e-21 2.88984 	-3.80885 	-3.27852e-20 2.87173 	-3.8023 	-3.88864e-20 2.85353 	-3.79569 	-4.49898e-20 2.83525 	-3.78904 	-5.10954e-20 2.81706 	-3.77998 	-5.72864e-20 2.79914 	-3.77046 	-6.33962e-20 2.74575 	-3.7494 	-1.07121e-19 2.69152 	-3.72784 	-1.50966e-19 2.63672 	-3.6972 	-1.46195e-19 2.5823 	-3.65981 	-8.81896e-20 2.52977 	-3.62371 	-3.27118e-20 2.51284 	-3.61478 	2.06993e-21 2.49586 	-3.60565 	3.52487e-20 2.47999 	-3.59325 	2.99929e-20 2.46404 	-3.5808 	2.47722e-20 2.44761 	-3.56799 	1.94513e-20 2.41708 	-3.5489 	5.65572e-20 2.38629 	-3.52963 	9.35837e-20 2.35525 	-3.51016 	1.30529e-19 2.32526 	-3.48565 	1.03445e-19 2.29586 	-3.46121 	7.2302e-20 2.25893 	-3.43552 	4.24483e-20 2.22154 	-3.4095 	1.25624e-20 2.18697 	-3.37663 	-2.90603e-21 2.15215 	-3.34343 	-1.81131e-20 2.11502 	-3.30809 	-3.42196e-20 2.11132 	-3.30523 	-3.18e-20 2.10761 	-3.30238 	-2.93831e-20 2.1039 	-3.29952 	-2.6969e-20 2.1004 	-3.29609 	-3.40087e-20 2.09692 	-3.29266 	-4.13448e-20 2.06021 	-3.26037 	-1.64548e-19 2.02448 	-3.22603 	-2.56536e-19 1.98943 	-3.18993 	-2.99649e-19 1.9572 	-3.14904 	-1.93315e-19 1.92543 	-3.10881 	-8.8983e-20 1.91683 	-3.09912 	-7.78889e-20 1.9082 	-3.08942 	-6.67906e-20 1.90086 	-3.07857 	-5.65164e-20 1.89383 	-3.06746 	-4.6433e-20 1.88673 	-3.05627 	-3.62739e-20 1.86481 	-3.03089 	-1.17384e-20 1.84277 	-3.00541 	1.28184e-20 1.82118 	-2.97925 	2.99909e-20 1.80215 	-2.95028 	1.21582e-20 1.78326 	-2.92154 	-5.51092e-21 1.76987 	-2.90257 	-2.11306e-20 1.75645 	-2.88358 	-3.67385e-20 1.74521 	-2.86329 	-1.81059e-20 1.7349 	-2.84248 	1.47283e-20 1.7246 	-2.82164 	4.76689e-20 1.71228 	-2.80445 	1.21693e-20 1.69993 	-2.78724 	-2.32802e-20 1.68822 	-2.76955 	-3.48954e-20 1.67814 	-2.7507 	1.29768e-20 1.6681 	-2.73191 	6.07177e-20 1.65477 	-2.7077 	1.97482e-19 1.64147 	-2.68353 	3.34185e-19 1.63055 	-2.65858 	2.96382e-19 1.6214 	-2.63314 	1.33623e-19 1.61248 	-2.60811 	-2.78252e-20 1.60468 	-2.59474 	-5.73767e-20 1.59688 	-2.58139 	-8.69361e-20 1.58989 	-2.56769 	-8.97799e-20 1.58401 	-2.55353 	-5.62839e-20 1.57815 	-2.53937 	-2.27611e-20 1.56816 	-2.51485 	-2.46232e-20 1.55828 	-2.49043 	-2.6525e-20 1.55035 	-2.46589 	-1.93321e-20 1.54491 	-2.4412 	-5.0246e-22 1.53984 	-2.41739 	1.77462e-20 1.5332 	-2.4029 	2.97201e-20 1.52658 	-2.38844 	4.16894e-20 1.52127 	-2.37375 	4.57202e-20 1.51692 	-2.35892 	4.40967e-20 1.51259 	-2.34405 	4.24432e-20 1.50736 	-2.32431 	2.55664e-20 1.50225 	-2.30469 	8.66411e-21 1.49822 	-2.28528 	-3.13067e-21 1.49687 	-2.26624 	-1.11907e-21 1.49577 	-2.24808 	8.13403e-22 1.4888 	-2.22756 	7.62593e-20 1.48194 	-2.20714 	1.51932e-19 1.47767 	-2.18688 	1.25791e-19 1.47434 	-2.16677 	6.78084e-20 1.47112 	-2.14649 	8.99842e-21 1.46991 	-2.13595 	-2.33578e-20 1.46877 	-2.12546 	-5.56704e-20 1.46788 	-2.11514 	-8.19947e-20 1.46941 	-2.10625 	-3.64812e-20 1.47098 	-2.09769 	7.88487e-21 1.46385 	-2.06748 	4.60807e-21 1.45702 	-2.03754 	1.31348e-21 1.45625 	-2.01097 	-2.34554e-20 1.45682 	-1.98527 	-5.17312e-20 1.45943 	-1.9623 	-7.4858e-20 1.45895 	-1.96034 	-6.85098e-20 1.45848 	-1.95838 	-6.22165e-20 1.45843 	-1.95662 	-6.69681e-20 1.45839 	-1.95486 	-7.17174e-20 1.45834 	-1.95311 	-7.64771e-20 1.45646 	-1.92818 	-2.09484e-19 1.45496 	-1.90357 	-3.41757e-19 1.45418 	-1.87952 	-4.4652e-19 1.45844 	-1.85931 	-1.91164e-19 1.4628 	-1.84094 	4.70807e-20 1.46065 	-1.82604 	1.11183e-19 1.45862 	-1.81123 	1.75066e-19 1.45954 	-1.79854 	1.42354e-19 1.46058 	-1.78596 	1.09742e-19 1.46179 	-1.77313 	7.63102e-20 1.46271 	-1.76356 	6.73875e-20 1.46372 	-1.75407 	5.84868e-20 1.46481 	-1.74464 	4.96083e-20 1.46742 	-1.73646 	5.16798e-20 1.47009 	-1.7287 	5.41949e-20 1.46957 	-1.70544 	2.95054e-20 1.46941 	-1.68246 	4.75397e-21 1.47232 	-1.6619 	2.02271e-20 1.47692 	-1.64244 	4.53125e-20 1.48286 	-1.62533 	6.8543e-20 1.48285 	-1.62126 	6.74234e-20 1.48293 	-1.61726 	6.75877e-20 1.48352 	-1.61363 	7.51536e-20 1.48412 	-1.61002 	8.27174e-20 1.48475 	-1.60637 	9.03696e-20 1.48745 	-1.59064 	1.39733e-19 1.49043 	-1.5751 	1.88975e-19 1.49366 	-1.55977 	2.3809e-19 1.49884 	-1.54628 	1.68531e-19 1.50425 	-1.5341 	8.22706e-20 1.50591 	-1.5146 	1.55649e-19 1.50841 	-1.49584 	2.0376e-19 1.51303 	-1.47901 	1.619e-19 1.518 	-1.46245 	1.2057e-19 1.5237 	-1.44495 	7.67763e-20 1.52372 	-1.44489 	7.65475e-20 1.52375 	-1.44483 	7.63188e-20 1.52377 	-1.44476 	7.60901e-20 1.5238 	-1.44471 	7.63941e-20 1.52383 	-1.44465 	7.69316e-20 1.52823 	-1.42763 	1.26498e-19 1.53303 	-1.41088 	1.7454e-19 1.53821 	-1.39439 	2.22191e-19 1.54498 	-1.37968 	1.84234e-19 1.55208 	-1.36676 	1.17107e-19 1.55541 	-1.34915 	2.03133e-19 1.55962 	-1.33243 	2.39621e-19 1.56526 	-1.31729 	1.74878e-19 1.57124 	-1.30239 	1.10351e-19 1.57759 	-1.28885 	3.78254e-20 1.57782 	-1.28785 	3.75714e-20 1.5781 	-1.28689 	3.67338e-20 1.57842 	-1.286 	3.516e-20 1.57874 	-1.28511 	3.35859e-20 1.57907 	-1.28422 	3.20026e-20 1.58429 	-1.27028 	-1.3486e-20 1.5898 	-1.25654 	-5.88955e-20 1.59561 	-1.24299 	-1.04223e-19 1.60232 	-1.23065 	-8.9342e-20 1.60937 	-1.21993 	-3.00677e-20 1.61382 	-1.20441 	-7.54522e-20 1.61858 	-1.1891 	-1.2125e-19 1.62465 	-1.17572 	-1.03846e-19 1.63195 	-1.16306 	-6.09347e-20 1.63998 	-1.15169 	3.29627e-22 1.64227 	-1.14485 	2.88234e-20 1.64488 	-1.13851 	2.83121e-20 1.64775 	-1.13255 	7.12939e-21 1.65067 	-1.12663 	-1.40024e-20 1.65381 	-1.12045 	-3.6137e-20 1.65745 	-1.11362 	-6.80396e-20 1.66118 	-1.10685 	-9.98307e-20 1.66499 	-1.10014 	-1.3151e-19 1.66903 	-1.09386 	-1.31071e-19 1.67327 	-1.08838 	-7.98807e-20 1.67841 	-1.07464 	-1.11917e-19 1.68444 	-1.06138 	-1.36102e-19 1.69177 	-1.04898 	-1.45545e-19 1.69995 	-1.03837 	-1.35216e-19 1.70804 	-1.0284 	-1.25228e-19 1.71381 	-1.01489 	-2.75528e-19 1.72008 	-1.0022 	-3.50382e-19 1.72696 	-0.990757 	-2.9631e-19 1.73411 	-0.979477 	-2.42746e-19 1.74241 	-0.969401 	-1.16067e-19 1.74451 	-0.965058 	-8.24933e-20 1.74676 	-0.961166 	-8.47113e-20 1.74907 	-0.957408 	-9.65943e-20 1.75142 	-0.953668 	-1.08429e-19 1.75389 	-0.949783 	-1.20724e-19 1.75875 	-0.942431 	-1.24331e-19 1.76373 	-0.935145 	-1.27911e-19 1.76883 	-0.927926 	-1.31464e-19 1.77406 	-0.920997 	-1.29655e-19 1.7794 	-0.915234 	-1.05277e-19 1.78545 	-0.903302 	-1.32887e-19 1.7925 	-0.891946 	-1.44772e-19 1.80044 	-0.881093 	-1.43545e-19 1.80876 	-0.872025 	-1.02971e-19 1.81704 	-0.863494 	-6.0946e-20 1.82365 	-0.851803 	-1.64904e-19 1.83052 	-0.840277 	-2.67023e-19 1.83768 	-0.830584 	-2.25707e-19 1.8459 	-0.821479 	-1.27943e-19 1.85458 	-0.813033 	4.38903e-23 1.8612 	-0.802474 	1.42194e-22 1.86797 	-0.793549 	1.07574e-22 1.87494 	-0.784766 	6.89284e-23 1.88211 	-0.776084 	2.98536e-23 1.89049 	-0.766312 	-1.51265e-23 1.89086 	-0.765898 	7.06418e-22 1.89124 	-0.765483 	1.42749e-21 1.89162 	-0.765069 	2.14809e-21 1.892 	-0.764656 	2.86823e-21 1.89237 	-0.764323 	4.20373e-22 1.89985 	-0.754869 	-2.52636e-20 1.90764 	-0.745585 	-4.7133e-20 1.91565 	-0.736414 	-6.88241e-20 1.92388 	-0.727363 	-8.98864e-20 1.93179 	-0.720375 	-3.12026e-20 1.93867 	-0.710419 	-2.11321e-20 1.94624 	-0.700903 	-1.39345e-20 1.95463 	-0.691919 	-1.04211e-20 1.96279 	-0.684647 	-1.59883e-20 1.97094 	-0.677779 	-2.24533e-20 1.97825 	-0.668072 	5.39374e-20 1.98578 	-0.658467 	1.30441e-19 1.99321 	-0.650378 	1.32358e-19 2.00152 	-0.643432 	6.57217e-20 2.00986 	-0.63669 	1.63269e-22 2.01757 	-0.627237 	9.71119e-23 2.0251 	-0.61886 	-1.11762e-20 2.03252 	-0.611319 	-3.10218e-20 2.04013 	-0.603857 	-5.08437e-20 2.0486 	-0.597218 	-6.38726e-20 2.0555 	-0.589511 	-1.06455e-19 2.06203 	-0.582999 	-1.10011e-19 2.0687 	-0.576545 	-1.13627e-19 2.0755 	-0.570148 	-1.17302e-19 2.08347 	-0.562866 	-1.21591e-19 2.08423 	-0.562202 	-1.22773e-19 2.08499 	-0.561538 	-1.23955e-19 2.08576 	-0.560875 	-1.25136e-19 2.08652 	-0.560212 	-1.26316e-19 2.08722 	-0.559674 	-1.22314e-19 2.09468 	-0.552374 	-9.43338e-20 2.10238 	-0.545216 	-6.50906e-20 2.11024 	-0.538127 	-3.58852e-20 2.11828 	-0.531108 	-6.71798e-21 2.12555 	-0.525617 	1.79223e-22 2.13271 	-0.517851 	6.74854e-20 2.14053 	-0.510869 	8.63826e-20 2.14854 	-0.503977 	1.03521e-19 2.1562 	-0.4979 	8.43365e-20 2.16321 	-0.492981 	1.49096e-20 2.1706 	-0.485458 	-5.50296e-20 2.17821 	-0.478084 	-1.18718e-19 2.18628 	-0.471443 	-1.34999e-19 2.19319 	-0.466578 	-6.72691e-20 2.20017 	-0.461797 	-7.25141e-23 2.20776 	-0.454517 	-3.96121e-23 2.21551 	-0.447295 	-6.88222e-24 2.22263 	-0.441431 	0 2.22947 	-0.436713 	0 2.23638 	-0.43207 	0 2.24413 	-0.425031 	0 2.2518 	-0.418312 	0 2.2583 	-0.413077 	0 2.265 	-0.408301 	-1.01528e-20 2.27181 	-0.403796 	-2.51744e-20 2.27969 	-0.396997 	-6.23882e-21 2.28661 	-0.391359 	-6.35043e-21 2.2931 	-0.386309 	-1.58163e-20 2.29972 	-0.381323 	-2.67461e-20 2.3064 	-0.376955 	-6.64871e-20 2.31411 	-0.370642 	-2.84722e-20 2.32045 	-0.36574 	-3.02617e-20 2.32692 	-0.360872 	-3.2023e-20 2.33351 	-0.356037 	-3.37563e-20 2.3401 	-0.35152 	-4.6471e-20 2.34635 	-0.346656 	-3.69107e-20 2.35196 	-0.342438 	-3.8362e-20 2.35766 	-0.338246 	-3.97918e-20 2.36346 	-0.334077 	-4.12002e-20 2.37032 	-0.329255 	-4.28144e-20 2.37083 	-0.328901 	-4.26966e-20 2.37135 	-0.328547 	-4.2579e-20 2.37188 	-0.328193 	-4.24616e-20 2.3724 	-0.327839 	-4.23443e-20 2.37285 	-0.32754 	-4.2521e-20 2.37902 	-0.32295 	-4.9204e-20 2.38528 	-0.318413 	-5.37533e-20 2.39165 	-0.313905 	-5.82256e-20 2.39814 	-0.309425 	-6.26214e-20 2.40377 	-0.305696 	-3.89671e-20 2.4101 	-0.300981 	-7.51579e-20 2.41626 	-0.29662 	-8.72911e-20 2.42253 	-0.292285 	-9.93655e-20 2.42891 	-0.287976 	-1.11381e-19 2.43355 	-0.284988 	-7.1307e-20 2.44012 	-0.280204 	-1.1858e-19 2.44616 	-0.276017 	-1.21107e-19 2.4523 	-0.271853 	-1.23587e-19 2.45819 	-0.267947 	-1.19e-19 2.46217 	-0.265383 	-7.53459e-20 2.46878 	-0.260766 	-1.17874e-19 2.47494 	-0.256561 	-1.28009e-19 2.48094 	-0.252566 	-1.22404e-19 2.48588 	-0.249304 	-9.47997e-20 2.48962 	-0.246845 	-4.31989e-20 2.4962 	-0.242431 	4.31573e-20 2.50259 	-0.238211 	1.0385e-19 2.50843 	-0.234381 	1.09346e-19 2.51241 	-0.231692 	5.03679e-20 2.5159 	-0.229337 	-2.66969e-20 2.52244 	-0.225122 	-1.75935e-20 2.52909 	-0.220927 	-8.50008e-21 2.5346 	-0.217342 	8.66905e-21 2.53778 	-0.215075 	2.59572e-20 2.54102 	-0.21282 	4.32201e-20 2.54749 	-0.208801 	-4.33231e-20 2.55408 	-0.204799 	-1.29879e-19 2.55906 	-0.201577 	-1.41244e-19 2.56199 	-0.19941 	-7.10831e-20 2.56496 	-0.197255 	-1.02097e-21 2.57136 	-0.193427 	-1.07354e-22 2.57786 	-0.189614 	7.8547e-22 2.58237 	-0.186728 	-1.56706e-20 2.58503 	-0.18466 	-4.94167e-20 2.58773 	-0.182601 	-8.31379e-20 2.59405 	-0.17896 	-4.76826e-20 2.60046 	-0.175333 	-1.22431e-20 2.60453 	-0.172756 	-8.54653e-21 2.60692 	-0.170783 	-2.59299e-20 2.60936 	-0.168819 	-4.32976e-20 2.61558 	-0.165361 	-2.59872e-20 2.62188 	-0.161917 	-8.70999e-21 2.62549 	-0.159639 	-9.45445e-21 2.62768 	-0.157742 	-2.60533e-20 2.62985 	-0.155871 	-4.33785e-20 2.63596 	-0.152591 	-1.64884e-19 2.6416 	-0.149536 	-2.61789e-19 2.64505 	-0.147376 	-2.57097e-19 2.64732 	-0.145498 	-1.64746e-19 2.64922 	-0.143716 	-4.3359e-20 2.65521 	-0.140609 	-2.59813e-20 2.66022 	-0.137902 	-8.62101e-21 2.6635 	-0.135858 	8.70879e-21 2.66585 	-0.134011 	2.13079e-20 2.66749 	-0.132318 	3.02498e-20 2.67335 	-0.12938 	9.13176e-20 2.67775 	-0.126982 	1.1869e-19 2.68086 	-0.12505 	1.17016e-19 2.6833 	-0.123247 	9.21095e-20 2.68468 	-0.12164 	3.16738e-20 2.69042 	-0.118865 	2.3232e-20 2.69422 	-0.116742 	1.48063e-20 2.69717 	-0.114918 	6.38571e-21 2.6997 	-0.113169 	0 2.70082 	-0.111646 	0 2.70643 	-0.10903 	0 2.70967 	-0.107151 	1.47197e-20 2.71246 	-0.105432 	3.255e-20 2.71508 	-0.103744 	5.0365e-20 2.71595 	-0.102302 	6.81069e-20 2.72142 	-0.0998394 	1.90103e-19 2.72414 	-0.0981768 	1.93616e-19 2.72675 	-0.0965583 	1.91088e-19 2.72942 	-0.094943 	1.88611e-19 2.73009 	-0.0935755 	7.02137e-20 2.73523 	-0.0913125 	5.31997e-20 2.73764 	-0.0897887 	3.62389e-20 2.7401 	-0.0882677 	1.92699e-20 2.74259 	-0.0867495 	2.29277e-21 2.74327 	-0.0854333 	1.46986e-20 2.74796 	-0.0833871 	-4.34306e-24 2.75022 	-0.0819576 	-2.98888e-23 2.75251 	-0.0805305 	-5.54244e-23 2.75485 	-0.0791058 	-8.09499e-23 2.75554 	-0.0778453 	6.38921e-21 2.7598 	-0.0759941 	-5.08072e-20 2.76191 	-0.0746552 	-4.9508e-20 2.76405 	-0.0733184 	-4.82363e-20 2.76623 	-0.0719837 	-4.6992e-20 2.76691 	-0.0707819 	-5.64379e-21 2.77079 	-0.0691062 	8.5596e-23 2.77274 	-0.0678544 	6.049e-23 2.77473 	-0.0666044 	3.53742e-23 2.77676 	-0.0653561 	1.02487e-23 2.77744 	-0.0642151 	0 2.78095 	-0.0626974 	1.11907e-20 2.78276 	-0.061529 	3.75139e-20 2.78461 	-0.0603622 	6.38284e-20 2.78649 	-0.0591969 	9.01341e-20 2.78716 	-0.0581178 	1.07497e-19 2.79033 	-0.0567424 	1.73096e-19 2.79201 	-0.0556539 	1.72018e-19 2.79371 	-0.0545668 	1.70967e-19 2.79545 	-0.053481 	1.69944e-19 2.79611 	-0.0524643 	1.02487e-19 2.79897 	-0.051217 	8.75808e-20 2.80051 	-0.050205 	5.31475e-20 2.80208 	-0.0491941 	1.87087e-20 2.80368 	-0.0481843 	-1.57355e-20 2.80432 	-0.0472297 	-4.66897e-20 2.80689 	-0.0460982 	-9.0207e-20 2.80831 	-0.0451591 	-8.89991e-20 2.80975 	-0.0442209 	-8.7825e-20 2.81123 	-0.0432836 	-8.66848e-20 2.81183 	-0.0423905 	-3.70504e-20 2.81415 	-0.0413635 	-4.95335e-20 2.81544 	-0.0404938 	-3.1713e-20 2.81677 	-0.0396249 	-1.39103e-20 2.81811 	-0.0387568 	3.87455e-21 2.81869 	-0.037924 	4.31037e-20 2.82077 	-0.0369916 	4.98629e-20 2.82195 	-0.036188 	6.73338e-20 2.82316 	-0.035385 	8.47964e-20 2.82438 	-0.0345826 	1.02251e-19 2.82492 	-0.0338086 	1.22066e-19 2.82679 	-0.032962 	1.46225e-19 2.82786 	-0.032221 	1.37003e-19 2.82896 	-0.0314806 	1.27802e-19 2.83008 	-0.0307407 	1.18621e-19 2.83056 	-0.0300236 	8.16885e-20 2.83225 	-0.0292549 	5.80647e-20 2.83322 	-0.0285733 	3.23166e-20 2.83421 	-0.0278922 	6.56671e-21 2.83522 	-0.0272115 	-1.9185e-20 2.83566 	-0.0265493 	-4.10464e-20 2.83718 	-0.0258515 	-5.61623e-20 2.83805 	-0.0252261 	-3.83886e-20 2.83895 	-0.024601 	-2.06409e-20 2.83986 	-0.0239763 	-2.91926e-21 2.84024 	-0.0233668 	4.84824e-20 2.84161 	-0.0227336 	1.02317e-19 2.8424 	-0.0221612 	1.09998e-19 2.8432 	-0.0215891 	1.17722e-19 2.84402 	-0.0210172 	1.25489e-19 2.84434 	-0.0204581 	8.86212e-20 2.84559 	-0.0198838 	7.17987e-20 2.84629 	-0.0193614 	6.3255e-20 2.847 	-0.0188391 	5.47072e-20 2.84773 	-0.0183171 	4.61553e-20 2.84799 	-0.0178058 	3.7606e-20 2.84913 	-0.0172855 	1.4408e-20 2.84975 	-0.01681 	1.47554e-20 2.85039 	-0.0163347 	1.50803e-20 2.85104 	-0.0158596 	1.53825e-20 2.85122 	-0.0153935 	4.14742e-20 2.85227 	-0.0149228 	3.98573e-20 2.85282 	-0.01