# vtk DataFile Version 2.0
track0
ASCII
DATASET POLYDATA
POINTS 12278 float
-0.0205 0.001 1e-05
-0.02052 0.000999216 1e-05
-0.02054 0.000998592 1e-05
-0.02056 0.000998126 1e-05
-0.02058 0.000997818 1e-05
-0.0206 0.000997665 1e-05
-0.0205 0.00367778 1e-05
-0.02052 0.00367703 1e-05
-0.02054 0.00367643 1e-05
-0.02056 0.00367599 1e-05
-0.02058 0.00367569 1e-05
-0.0206 0.00367554 1e-05
-0.0205 0.00635556 1e-05
-0.02052 0.00635527 1e-05
-0.02054 0.00635505 1e-05
-0.02056 0.00635488 1e-05
-0.02058 0.00635476 1e-05
-0.0206 0.00635471 1e-05
-0.0205 0.00903333 1e-05
-0.02052 0.00903311 1e-05
-0.02054 0.00903293 1e-05
-0.02056 0.0090328 1e-05
-0.02058 0.00903271 1e-05
-0.0206 0.00903266 1e-05
-0.0205 0.0117111 1e-05
-0.02052 0.0117111 1e-05
-0.02054 0.011711 1e-05
-0.02056 0.011711 1e-05
-0.02058 0.011711 1e-05
-0.0206 0.011711 1e-05
-0.0205 0.0143889 1e-05
-0.02052 0.014389 1e-05
-0.02054 0.014389 1e-05
-0.02056 0.0143891 1e-05
-0.02058 0.0143891 1e-05
-0.0206 0.0143891 1e-05
-0.0205 0.0170667 1e-05
-0.02052 0.017067 1e-05
-0.02054 0.0170672 1e-05
-0.02056 0.0170674 1e-05
-0.02058 0.0170675 1e-05
-0.0206 0.0170676 1e-05
-0.0205 0.0197444 1e-05
-0.02052 0.019745 1e-05
-0.02054 0.0197454 1e-05
-0.02056 0.0197457 1e-05
-0.02058 0.0197459 1e-05
-0.0206 0.019746 1e-05
-0.0205 0.0224222 1e-05
-0.02052 0.022423 1e-05
-0.02054 0.0224236 1e-05
-0.02056 0.0224241 1e-05
-0.02058 0.0224244 1e-05
-0.0206 0.0224245 1e-05
-0.0205 0.0251 1e-05
-0.02052 0.0251003 1e-05
-0.02054 0.0251005 1e-05
-0.02056 0.0251007 1e-05
-0.02058 0.0251008 1e-05
-0.0206 0.0251008 1e-05
-0.0205 0.001 1e-05
-0.0203632 0.00100536 1e-05
-0.0202266 0.00101331 1e-05
-0.0200901 0.00102296 1e-05
-0.0200427 0.00102682 1e-05
-0.0198376 0.00104418 1e-05
-0.0196338 0.00107322 1e-05
-0.0194327 0.00111734 1e-05
-0.0192368 0.00118024 1e-05
-0.0190172 0.00124951 1e-05
-0.0189002 0.00128348 1e-05
-0.0187827 0.00131598 1e-05
-0.0186649 0.001347 1e-05
-0.0185469 0.001377 1e-05
-0.0183807 0.00141936 1e-05
-0.0182041 0.00146458 1e-05
-0.0180267 0.00150692 1e-05
-0.0178487 0.0015464 1e-05
-0.0176703 0.00158389 1e-05
-0.0174976 0.00161991 1e-05
-0.0172846 0.00166394 1e-05
-0.0170715 0.00170741 1e-05
-0.0168583 0.00175029 1e-05
-0.0166449 0.00179219 1e-05
-0.0163945 0.00184007 1e-05
-0.0163234 0.00185324 1e-05
-0.0162522 0.00186629 1e-05
-0.016181 0.00187921 1e-05
-0.0161097 0.00189201 1e-05
-0.0160387 0.0019046 1e-05
-0.0157586 0.0019535 1e-05
-0.0154779 0.00199931 1e-05
-0.0151968 0.00204225 1e-05
-0.0149154 0.00208283 1e-05
-0.0146381 0.00212134 1e-05
-0.0143838 0.00215527 1e-05
-0.0141293 0.00218766 1e-05
-0.0138747 0.00221855 1e-05
-0.0136198 0.00224797 1e-05
-0.0132934 0.00228369 1e-05
-0.0132791 0.00228515 1e-05
-0.0132648 0.0022866 1e-05
-0.0132504 0.00228805 1e-05
-0.0132361 0.0022895 1e-05
-0.0132214 0.00229098 1e-05
-0.0129776 0.00231543 1e-05
-0.0127337 0.00233865 1e-05
-0.0124897 0.00236061 1e-05
-0.0122456 0.00238129 1e-05
-0.0120025 0.00240058 1e-05
-0.0117547 0.00241909 1e-05
-0.0115067 0.00243627 1e-05
-0.0112587 0.00245231 1e-05
-0.0110106 0.00246734 1e-05
-0.0107632 0.00248136 1e-05
-0.0105252 0.00249391 1e-05
-0.0102872 0.00250547 1e-05
-0.0100491 0.00251602 1e-05
-0.00981105 0.00252575 1e-05
-0.00957337 0.00253471 1e-05
-0.00934491 0.00254261 1e-05
-0.00911643 0.00254974 1e-05
-0.00888792 0.0025561 1e-05
-0.0086594 0.00256171 1e-05
-0.00843108 0.00256668 1e-05
-0.00821175 0.00257084 1e-05
-0.00799241 0.00257439 1e-05
-0.00777306 0.00257731 1e-05
-0.0075537 0.00257952 1e-05
-0.00733443 0.00258114 1e-05
-0.00712387 0.00258212 1e-05
-0.0069133 0.00258255 1e-05
-0.00670273 0.00258243 1e-05
-0.00649216 0.00258162 1e-05
-0.0062816 0.00258017 1e-05
-0.00607944 0.00257819 1e-05
-0.0058773 0.00257565 1e-05
-0.00567516 0.00257256 1e-05
-0.00547303 0.00256874 1e-05
-0.00527083 0.00256419 1e-05
-0.00507675 0.00255912 1e-05
-0.00488269 0.00255342 1e-05
-0.00468865 0.0025471 1e-05
-0.00449464 0.00253997 1e-05
-0.00430044 0.0025319 1e-05
-0.00411412 0.00252328 1e-05
-0.00392784 0.00251388 1e-05
-0.00374159 0.00250368 1e-05
-0.0035554 0.00249254 1e-05
-0.00336883 0.00248015 1e-05
-0.00318995 0.00246711 1e-05
-0.00301115 0.00245299 1e-05
-0.00283245 0.00243774 1e-05
-0.00265386 0.0024212 1e-05
-0.00247443 0.00240313 1e-05
-0.0023027 0.00238425 1e-05
-0.00213114 0.00236383 1e-05
-0.00195982 0.00234153 1e-05
-0.00178875 0.00231737 1e-05
-0.00161577 0.00229104 1e-05
-0.00161569 0.00229103 1e-05
-0.00161561 0.00229102 1e-05
-0.00161553 0.002291 1e-05
-0.00161545 0.00229099 1e-05
-0.00161537 0.00229098 1e-05
-0.00145058 0.00226407 1e-05
-0.00128619 0.00223481 1e-05
-0.00112223 0.00220325 1e-05
-0.000958711 0.00216946 1e-05
-0.000791418 0.00213235 1e-05
-0.000633135 0.00209424 1e-05
-0.000475556 0.00205331 1e-05
-0.000318719 0.00200962 1e-05
-0.000162835 0.00196265 1e-05
0 0.0019095 1e-05
3.73283e-05 0.0018963 1e-05
7.45567e-05 0.00188282 1e-05
0.000111687 0.00186908 1e-05
0.000148719 0.00185508 1e-05
0.000179021 0.00184337 1e-05
0.000248894 0.00181593 1e-05
0.000318357 0.00178747 1e-05
0.000387394 0.00175798 1e-05
0.00045599 0.00172749 1e-05
0.000528387 0.0016941 1e-05
0.000634886 0.00164312 1e-05
0.000740278 0.00158989 1e-05
0.00084451 0.00153442 1e-05
0.00094762 0.0014769 1e-05
0.00101982 0.00143468 1e-05
0.00102803 0.00142972 1e-05
0.00103624 0.00142474 1e-05
0.00104443 0.00141975 1e-05
0.00105261 0.00141474 1e-05
0.00106088 0.00140966 1e-05
0.00116821 0.00134347 1e-05
0.00127404 0.00127491 1e-05
0.00137827 0.00120395 1e-05
0.00148099 0.00113082 1e-05
0.00159662 0.00104511 1e-05
0.0015968 0.00104497 1e-05
0.00159698 0.00104483 1e-05
0.00159716 0.00104469 1e-05
0.00159734 0.00104455 1e-05
0.00159752 0.00104441 1e-05
0.00169216 0.000970851 1e-05
0.00178541 0.000895528 1e-05
0.00187717 0.000818407 1e-05
0.00196752 0.000739632 1e-05
0.00203791 0.000676366 1e-05
0.00205799 0.000657859 1e-05
0.00207799 0.000639262 1e-05
0.00209791 0.000620575 1e-05
0.00211777 0.000601825 1e-05
0.00213833 0.000582291 1e-05
0.00219144 0.000531491 1e-05
0.00224405 0.000480175 1e-05
0.00229615 0.000428335 1e-05
0.00234772 0.000375964 1e-05
0.002394 0.000328254 1e-05
0.00245187 0.000267771 1e-05
0.0025091 0.000206687 1e-05
0.00256571 0.00014502 1e-05
0.0026218 8.28861e-05 1e-05
0.00268334 1.35337e-05 1e-05
0.00268569 1.08269e-05 1e-05
0.00268805 8.1192e-06 1e-05
0.0026904 5.41048e-06 1e-05
0.00269275 2.70075e-06 1e-05
0.00269509 0 1e-05
0.00275899 -7.37367e-05 1e-05
0.00282227 -0.000148005 1e-05
0.00288491 -0.000222813 1e-05
0.00294688 -0.000298172 1e-05
0.00300395 -0.000368654 1e-05
0.00304968 -0.000425962 1e-05
0.0030951 -0.000483516 1e-05
0.0031402 -0.000541312 1e-05
0.00318506 -0.000599303 1e-05
0.00323259 -0.000661312 1e-05
0.00325061 -0.000685068 1e-05
0.00326858 -0.000708864 1e-05
0.0032865 -0.0007327 1e-05
0.00330437 -0.000756576 1e-05
0.00332189 -0.000780089 1e-05
0.00339003 -0.000871876 1e-05
0.00345758 -0.000964106 1e-05
0.00352449 -0.00105679 1e-05
0.00359087 -0.00114986 1e-05
0.00365373 -0.00123896 1e-05
0.00368021 -0.00127688 1e-05
0.00370661 -0.00131486 1e-05
0.00373293 -0.00135288 1e-05
0.0037592 -0.00139095 1e-05
0.00378611 -0.00143005 1e-05
0.00383007 -0.00149413 1e-05
0.00387381 -0.00155836 1e-05
0.00391734 -0.00162274 1e-05
0.00396064 -0.00168727 1e-05
0.00400277 -0.00175043 1e-05
0.004071 -0.0018533 1e-05
0.00413882 -0.00195644 1e-05
0.00420621 -0.00205986 1e-05
0.00427331 -0.00216346 1e-05
0.00434393 -0.00227318 1e-05
0.00434996 -0.0022826 1e-05
0.00435598 -0.00229203 1e-05
0.004362 -0.00230146 1e-05
0.00436801 -0.00231089 1e-05
0.00437401 -0.0023203 1e-05
0.00445486 -0.00244725 1e-05
0.00453525 -0.00257448 1e-05
0.00461526 -0.00270197 1e-05
0.0046949 -0.00282967 1e-05
0.00477278 -0.00295497 1e-05
0.00479944 -0.00299802 1e-05
0.00482608 -0.00304109 1e-05
0.00485269 -0.00308417 1e-05
0.00487929 -0.00312726 1e-05
0.00490609 -0.00317067 1e-05
0.00496671 -0.00326886 1e-05
0.00502718 -0.00336714 1e-05
0.0050875 -0.00346552 1e-05
0.00514769 -0.00356398 1e-05
0.00520732 -0.00366161 1e-05
0.00526038 -0.00374853 1e-05
0.0053134 -0.00383549 1e-05
0.00536638 -0.00392247 1e-05
0.00541939 -0.00400943 1e-05
0.00547262 -0.00409665 1e-05
0.00551558 -0.00416694 1e-05
0.00555852 -0.00423726 1e-05
0.00560141 -0.00430759 1e-05
0.00564429 -0.00437794 1e-05
0.0056871 -0.00444811 1e-05
0.00575839 -0.00456487 1e-05
0.00582973 -0.00468159 1e-05
0.00590111 -0.00479829 1e-05
0.00597263 -0.00491491 1e-05
0.00604356 -0.00503008 1e-05
0.00607981 -0.00508872 1e-05
0.00611607 -0.00514735 1e-05
0.00615233 -0.00520597 1e-05
0.00618862 -0.00526458 1e-05
0.00622502 -0.00532326 1e-05
0.0063038 -0.00545002 1e-05
0.00638278 -0.00557667 1e-05
0.00646194 -0.0057032 1e-05
0.00654138 -0.00582955 1e-05
0.00661893 -0.00595209 1e-05
0.00666283 -0.00602101 1e-05
0.00670679 -0.0060899 1e-05
0.0067508 -0.00615875 1e-05
0.00679489 -0.00622755 1e-05
0.00683936 -0.00629671 1e-05
0.00691125 -0.00640811 1e-05
0.00698338 -0.00651934 1e-05
0.00705578 -0.00663041 1e-05
0.00712846 -0.00674128 1e-05
0.00719878 -0.00684773 1e-05
0.00726948 -0.00695399 1e-05
0.0073404 -0.00706011 1e-05
0.00741155 -0.00716607 1e-05
0.007483 -0.00727182 1e-05
0.00755599 -0.00737909 1e-05
0.00760142 -0.00744538 1e-05
0.00764698 -0.00751157 1e-05
0.00769266 -0.00757768 1e-05
0.00773847 -0.0076437 1e-05
0.00778313 -0.00770771 1e-05
0.00790091 -0.00787567 1e-05
0.00801946 -0.0080431 1e-05
0.00813878 -0.00820996 1e-05
0.0082591 -0.00837611 1e-05
0.00837203 -0.00853001 1e-05
0.00837975 -0.00854039 1e-05
0.00838747 -0.00855076 1e-05
0.00839519 -0.00856113 1e-05
0.00840292 -0.0085715 1e-05
0.00841067 -0.00858189 1e-05
0.00852164 -0.00873051 1e-05
0.00863343 -0.00887851 1e-05
0.00874606 -0.00902586 1e-05
0.00885956 -0.00917256 1e-05
0.00896551 -0.00930763 1e-05
0.00903014 -0.00938897 1e-05
0.00909504 -0.0094701 1e-05
0.0091602 -0.00955101 1e-05
0.00922567 -0.00963168 1e-05
0.0092933 -0.00971439 1e-05
0.00934736 -0.00977996 1e-05
0.00940162 -0.00984537 1e-05
0.00945607 -0.00991063 1e-05
0.00951071 -0.00997571 1e-05
0.0095636 -0.0100383 1e-05
0.00968415 -0.0101801 1e-05
[...]
POINT_DATA 12278
 FIELD attributes 2
p 1 12278 float
177013 177095 177167 177230 177284 177329
108946 108964 108980 108995 109007 109017
87752.7 87762.3 87771.6 87780.8 87789.8 87798.2
79935 79941.3 79947.5 79953.6 79959.7 79965.7
77144.1 77153.3 77162.5 77171.7 77181 77190.2
77561.5 77575 77588.6 77602.2 77615.7 77629.3
81094.6 81107 81119.3 81131.4 81143.3 81155.1
90921.1 90940.8 90959.8 90978.2 90995.7 91012.6
117353 117386 117416 117444 117470 117494
215472 215282 215090 214896 214700 214502
177013 173407 169080 164502 162836 158904 155521 152871 144705 134664 129222 123793 119855 119244 118392 112346 106447 102326 101430 100563 99581.1 98598.8 97172.2 95703.9 93988.3 93621.8 93254.8 92887.2 92406.2 91908.5 89989 88185.1 86671.1 85883.7 85107 84421.2 83756.5 83106.6 82454.9 81620.9 81586 81557.1 81529.1 81501 81472.2 80939.4 80407.1 79875.3 79344 78919 78492.7 78083.6 77685.9 77310.3 76944.3 76594.4 76244.1 75920.3 75618.9 75317.8 75028.3 74738.7 74460.2 74197.3 73934.7 73681.1 73427.4 73177.3 72941.1 72705.1 72476.2 72247.3 72016.8 71797.3 71578.1 71364.4 71150.9 70932.3 70721.4 70510.8 70303.6 70096.7 69883.7 69671.3 69459.2 69247.3 69035.8 68820.6 68592.6 68365 68132.1 67896.4 67652.3 67399.7 67133.8 66853.5 66539.8 66227.6 65917 65604 65603.8 65603.6 65603.4 65603.1 65602.9 65211.6 64826.1 64446.1 64048 63567.8 63052.3 62542.6 61841.5 61068.4 60255.2 60007 59769.2 59542.2 59315.8 59130.5 58573.5 58014.3 57453 56979.6 56511.2 55906.6 55303.9 54764.1 54222.9 53838.8 53780.6 53722.3 53666.9 53619.2 53570.9 53017.7 52457.3 51939.3 51466.9 50921.9 50920.7 50919.6 50918.6 50917.7 50916.8 50489.8 50055.2 49652.8 49317.4 49048.4 48949.1 48849.3 48778.4 48708.7 48636 48447.6 48256.9 48064.3 47920 47787.9 47615.1 47446.4 47306.7 47164.9 47005.6 46999.2 46992.8 46986.5 46980.7 46975.2 46869.9 46757.6 46642.8 46529.6 46422.6 46387.1 46350.3 46310.7 46270.3 46226.5 46206.4 46186.2 46165.8 46144.6 46123.5 46098.2 46071.5 46034.4 45992.1 45950.6 45953 45955.1 45954.4 45953.6 45952.6 45941.3 45929.6 45917.5 45902.5 45887.3 45897.1 45906.2 45910.7 45914.7 45918.4 45917.6 45916.8 45915.9 45914.8 45913.8 45927.3 45941 45953.6 45964.4 45974.7 45985 45995.2 46005 46014.8 46024.5 46036.1 46047.5 46058.7 46069.8 46080.7 46099.2 46117.6 46136 46154.6 46173.2 46181.8 46190.3 46199 46208.1 46217.2 46239.9 46262.7 46286.1 46310 46333.8 46341.2 46348.6 46356.3 46364.6 46372.8 46396.1 46419.4 46443.6 46468.8 46493.6 46502.5 46511.4 46521.1 46531.3 46541.6 46561.3 46581.1 46601.5 46623.3 46644.6 46658.5 46672.4 46688.1 46704.4 46721.2 46732.7 46744.3 46756 46768.6 46781 46803 46825.1 46850.6 46876.8 46902.7 46903.8 46905 46906.3 46907.7 46909.1 46930.3 46951.7 46973.5 46997.4 47019.7 47029.3 47038.9 47049.9 47061 47072.4 47082.1 47091.8 47101.6 47112 47122.2 47139.3 47156.7 47175.6 47195.5 47214.9 47217.5 47220.1 47223.1 47226 47229 47243.3 47257.8 47272.3 47287.9 47302.8 47316.6 47330.8 47346.3 47361.9 47378.8 47378.8 47378.9 47379 47379 47379.1 47393.7 47408.4 47423.3 47439.2 47454.4 47466.5 47479 47492.7 47506.3 47519.5 47520.1 47520.7 47521.4 47522.1 47522.8 47534.6 47546.4 47558.3 47571 47583.4 47593.7 47604.1 47615.7 47627.9 47639.9 47643.9 47648.3 47653 47657.7 47662.6 47668.5 47674.3 47680.2 47686.3 47692.7 47701.5 47710.6 47720.3 47731.3 47741.7 47749.3 47757.4 47766.3 47775.3 47784.5 47786.6 47789 47791.6 47794.1 47796.8 47802.1 47807.5 47812.9 47818.4 47824.4 47830.6 47837.2 47844.1 47852.2 47860 47865.1 47870.1 47876.4 47883 47889.8 47893.4 47898 47902.7 47907.4 47912.7 47912.9 47913.1 47913.4 47913.6 47913.9 47918.1 47922.2 47926.3 47930.5 47935.5 47937.8 47940.4 47943.4 47947.3 47951.2 47952.3 47953.4 47955.3 47958.1 47960.8 47960.8 47961.2 47962.1 47963 47964.5 47963.6 47963.3 47963.1 47962.8 47962.4 47962.4 47962.4 47962.3 47962.3 47962.3 47961 47959.7 47958.3 47956.9 47956.1 47953 47950.4 47947.9 47945.6 47943.8 47939.4 47935.1 47931.4 47928.4 47925.3 47919.8 47914.3 47909.3 47905.1 47900.8 47894.2 47887.6 47881.5 47875.8 47870.4 47862.6 47855.2 47848 47840.7 47834.1 47825.4 47817 47808.6 47800.2 47792.1 47783.6 47775.1 47766.7 47758.2 47748.3 47747.6 47746.9 47746.1 47745.4 47744.7 47734.3 47723.8 47713.4 47702.9 47692.6 47680.8 47669.3 47657.9 47646.3 47635.1 47622.1 47609.6 47597.1 47584.6 47572.3 47558.4 47544.8 47531.3 47517.9 47504.6 47489.8 47475.1 47460.7 47446.4 47432.1 47416.4 47400.7 47385.4 47370.2 47355 47338.5 47321.9 47305.7 47289.6 47273.5 47256.2 47238.8 47221.7 47204.7 47187.8 47169.7 47151.6 47133.6 47115.8 47098.1 47079.3 47060.5 47041.7 47023.1 47004.7 46985.2 46965.7 46946.1 46926.8 46907.6 46887.5 46867.3 46847.1 46827.1 46807.2 46786.4 46765.6 46744.8 46724 46703.5 46682.2 46660.8 46639.4 46618 46596.8 46575 46553 46531 46509 46487.3 46464.9 46442.4 46419.9 46397.4 46375.1 46352.2 46329.2 46306.2 46283.2 46260.4 46237.1 46213.6 46190.1 46166.6 46143.3 46119.5 46095.6 46071.7 46047.8 46024 45999.8 45975.5 45951.2 45926.9 45902.6 45878 45853.4 45828.6 45803.9 45779.3 45754.4 45729.3 45704.2 45679.2 45654.2 45628.9 45603.5 45578.1 45552.7 45527.3 45501.7 45475.9 45450.2 45424.5 45398.8 45372.9 45346.9 45320.8 45294.8 45268.8 45242.6 45216.3 45190 45163.7 45137.4 45110.9 45084.3 45057.8 45031.2 45004.6 44977.9 44951 44924.2 44897.4 44870.6 44843.6 44816.5 44789.5 44762.4 44735.3 44708.1 44680.8 44653.5 44626.2 44599 44571.5 44544 44516.5 44489 44461.5 44433.8 44406.1 44378.4 44350.6 44322.9 44295.1 44267.1 44239.2 44211.3 44183.4 44155.3 44127.2 44099.1 44071 44042.9 44014.6 43986.3 43958 43929.7 43901.4 43873 43844.5 43816 43787.6 43759.1 43730.4 43701.8 43673.1 43644.5 43615.8 43587 43558.2 43529.3 43500.5 43471.7 43442.7 43413.7 43384.7 43355.7 43326.7 43297.5 43268.3 43239.2 43210 43180.8 43151.5 43122.1 43092.8 43063.4 43034.1 43004.6 42975.1 42945.5 42916 42886.5 42856.8 42827.1 42797.4 42767.8 42738 42708.2 42678.4 42648.5 42618.6 42588.7 42558.7 42528.7 42498.7 42468.6 42438.6 42408.4 42378.2 42348 42317.8 42287.5 42257.2 42226.8 42196.4 42166 42135.6 42105.1 42074.5 42044 42013.4 41982.8 41952.1 41921.3 41890.6 41859.8 41829.1 41798.2 41767.2 41736.3 41705.4 41674.4 41643.3 41612.2 41581.1 41549.9 41518.8 41487.5 41456.2 41424.9 41393.6 41362.2 41330.8 41299.3 41267.7 41236.2 41204.7 41173 41141.3 41109.6 41077.9 41046.1 41014.3 40982.4 40950.5 40918.6 40886.6 40854.5 40822.4 40790.3 40758.2 40726 40693.7 40661.4 40629.1 40596.7 40564.4 40531.9 40499.3 40466.8 40434.3 40401.7 40369 40336.2 40303.4 40270.7 40237.9 40204.9 40171.9 40139 40106 40072.9 40039.8 40006.6 39973.4 39940.2 39906.9 39873.5 39840.1 39806.6 39773.2 39739.7 39706.1 39672.4 39638.7 39605.1 39571.3 39537.5 39503.6 39469.6 39435.7 39401.8 39367.7 39333.5 39299.4 39265.2 39231 39196.7 39162.3 39127.9 39093.5 39059 39024.4 38989.8 38955.1 38920.5 38885.7 38850.9 38816 38781.1 38746.2 38711.2 38676.1 38641 38605.8 38570.7 38535.4 38500.1 38464.7 38429.3 38393.8 38358.3 38322.7 38287.1 38251.4 38215.7 38179.9 38144.1 38108.1 38072.2 38036.2 38000.2 37964 37927.8 37891.6 37855.4 37819.1 37782.7 37746.2 37709.7 37673.2 37636.6 37599.9 37563.2 37526.4 37489.6 37452.8 37415.8 37378.8 37341.7 37304.7 37267.5 37230.3 37193 37155.7 37118.3 37080.9 37043.4 37005.8 36968.1 36930.5 36892.8 36855 36817.1 36779.2 36741.3 36703.3 36665.2 36627 36588.8 36550.6 36512.3 36473.9 36435.4 36397 36358.4 36319.9 36281.2 36242.4 36203.6 36164.8 36125.9 36086.9 36047.9 36008.8 35969.7 35930.5 35891.2 35851.8 35812.4 35773 35733.5 35693.9 35654.3 35614.6 35574.9 35535.1 35495.2 35455.2 35415.2 35375.2 35335.1 35294.8 35254.6 35214.3 35173.9 35133.5 35093 35052.4 35011.8 34971.1 34930.4 34889.5 34848.6 34807.7 34766.7 34725.7 34684.5 34643.3 34602 34560.7 34519.4 34477.9 34436.4 34394.8 34353.1 34311.5 34269.7 34227.8 34185.9 34143.9 34102 34059.8 34017.6 33975.4 33933.1 33890.8 33848.3 33805.8 33763.3 33720.7 33678 33635.2 33592.4 33549.5 33506.5 33463.6 33420.4 33377.3 33334.1 33290.8 33247.5 33204 33160.5 33116.9 33073.3 33029.7 32985.8 32942 32898.1 32854.1 32810.2 32766 32721.8 32677.6 32633.3 32589 32544.4 32499.9 32455.4 32410.7 32366 32321.2 32276.3 32231.4 32186.4 32141.4 32096.2 32051 32005.7 31960.3 31915 31869.4 31823.8 31778.2 31732.5 31686.8 31640.9 31595 31549 31502.9 31456.8 31410.6 31364.3 31317.9 31271.5 31225.1 31178.4 31131.8 31085.1 31038.3 30991.5 30944.5 30897.5 30850.5 30803.3 30756.2 30708.8 30661.4 30614 30566.5 30519 30471.2 30423.5 30375.7 30327.8 30279.9 30231.8 30183.7 30135.5 30087.2 30039 29990.5 29942 29893.5 29844.8 29796.2 29747.3 29698.5 29649.5 29600.5 29551.5 29502.2 29453 29403.7 29354.3 29304.9 29255.2 29205.6 29155.9 29106.1 29056.3 29006.3 28956.3 28906.2 28856 28805.8 28755.4 28705 28654.5 28603.9 28553.3 28502.5 28451.7 28400.8 28349.8 28298.9 28247.6 28196.4 28145.1 28093.7 28042.4 27990.7 27939.1 27887.4 27835.6 27783.8 27731.8 27679.8 27627.6 27575.4 27523.2 27470.8 27418.3 27365.8 27313.2 27260.6 27207.7 27154.8 27101.8 27048.8 26995.8 26942.5 26889.2 26835.8 26782.3 26728.9 26675.1 26621.4 26567.6 26513.7 26459.9 26405.7 26351.5 26297.3 26243 26188.7 26134.2 26079.6 26025 25970.3 25915.6 25860.6 25805.6 25750.6 25695.6 25640.5 25585.1 25529.8 25474.5 25419.1 25363.7 25308 25252.4 25196.8 25141.2 25085.5 25029.6 24973.8 24918.1 24862.4 24806.6 24750.7 24694.9 24639.3 24583.6 24527.9 24472.2 24416.9 24361.8 24306.7 24252 24197.3 24142.4 24087.4 24032.4 23977 23922.3 23873.6 23825 23776.4 23732.6 23683.4 23618.1 23552.6 23487.1 23412.6 23361.4 23331 23301 23271.2 23257 23252.8 23248.7 23244.5 23240.4 23238.8 23236.2 23230.9 23225.7 23220.4 23214.7 23187.7 23160.5 23133.1 23105.4 23061.8 22985.9 22916.9 22848 22779.1 22722.8 22671.7 22615.4 22559 22502.7 22440 22372.3 22304.2 22236.1 22168 22099.5 22028.2 21955 21881.7 21808.5 21733.1 21654.9 21575.1 21495.3 21415.5 21334.1 21249.8 21163.7 21077.5 20991.4 20903.4 20812.4 20719.5 20626.5 20533.5 20438.7 20340.6 20240.4 20140.1 20039.7 19937.4 19831.5 19723.3 19615 19506.6 19396.1 19281.8 19164.7 19047.5 18930.2 18810.4 18686.4 18559.7 18432.8 18305.7 18176.3 18042.2 17904.3 17766.1 17627.8 17485.9 17339 17189.3 17039.4 16889.5 16737.2 16579.4 16414.8 16249.9 16084.7 15913.2 15735.5 15557.3 15379.2 15201 15023 14838.3 14638.8 14438.5 14237.4 14022.1 13798.9 13585.8 13373.3 13161.4 12960 12751.2 12503.7 12253.9 12002 11712.7 11412.6 11157.2 10904.7 10654.9 10450.2 10237.6 9921.63 9598.05 9265.89 8833.21 8384.22 8071.46 7773.84 7494.25 7349.15 7198.11 6801.63 6357.17 5838.93 5089.56 4311.28 3779.13 3398.21 3250.87 3316.6 3382.92 3361.98 2777.11 1388.14 0