# vtk DataFile Version 2.0
track0
ASCII
DATASET POLYDATA
POINTS 12278 float
-0.0205 0.001 1e-05
-0.02052 0.000999216 1e-05
-0.02054 0.000998592 1e-05
-0.02056 0.000998126 1e-05
-0.02058 0.000997818 1e-05
-0.0206 0.000997665 1e-05
-0.0205 0.00367778 1e-05
-0.02052 0.00367703 1e-05
-0.02054 0.00367643 1e-05
-0.02056 0.00367599 1e-05
-0.02058 0.00367569 1e-05
-0.0206 0.00367554 1e-05
-0.0205 0.00635556 1e-05
-0.02052 0.00635527 1e-05
-0.02054 0.00635505 1e-05
-0.02056 0.00635488 1e-05
-0.02058 0.00635476 1e-05
-0.0206 0.00635471 1e-05
-0.0205 0.00903333 1e-05
-0.02052 0.00903311 1e-05
-0.02054 0.00903293 1e-05
-0.02056 0.0090328 1e-05
-0.02058 0.00903271 1e-05
-0.0206 0.00903266 1e-05
-0.0205 0.0117111 1e-05
-0.02052 0.0117111 1e-05
-0.02054 0.011711 1e-05
-0.02056 0.011711 1e-05
-0.02058 0.011711 1e-05
-0.0206 0.011711 1e-05
-0.0205 0.0143889 1e-05
-0.02052 0.014389 1e-05
-0.02054 0.014389 1e-05
-0.02056 0.0143891 1e-05
-0.02058 0.0143891 1e-05
-0.0206 0.0143891 1e-05
-0.0205 0.0170667 1e-05
-0.02052 0.017067 1e-05
-0.02054 0.0170672 1e-05
-0.02056 0.0170674 1e-05
-0.02058 0.0170675 1e-05
-0.0206 0.0170676 1e-05
-0.0205 0.0197444 1e-05
-0.02052 0.019745 1e-05
-0.02054 0.0197454 1e-05
-0.02056 0.0197457 1e-05
-0.02058 0.0197459 1e-05
-0.0206 0.019746 1e-05
-0.0205 0.0224222 1e-05
-0.02052 0.022423 1e-05
-0.02054 0.0224236 1e-05
-0.02056 0.0224241 1e-05
-0.02058 0.0224244 1e-05
-0.0206 0.0224245 1e-05
-0.0205 0.0251 1e-05
-0.02052 0.0251003 1e-05
-0.02054 0.0251005 1e-05
-0.02056 0.0251007 1e-05
-0.02058 0.0251008 1e-05
-0.0206 0.0251008 1e-05
-0.0205 0.001 1e-05
-0.0203632 0.00100536 1e-05
-0.0202266 0.00101331 1e-05
-0.0200901 0.00102296 1e-05
-0.0200427 0.00102682 1e-05
-0.0198376 0.00104418 1e-05
-0.0196338 0.00107322 1e-05
-0.0194327 0.00111734 1e-05
-0.0192367 0.00118024 1e-05
-0.0190172 0.00124951 1e-05
-0.0189002 0.00128348 1e-05
-0.0187827 0.00131598 1e-05
-0.0186649 0.001347 1e-05
-0.0185468 0.001377 1e-05
-0.0183807 0.00141936 1e-05
-0.0182041 0.00146458 1e-05
-0.0180267 0.00150692 1e-05
-0.0178487 0.00154639 1e-05
-0.0176703 0.00158389 1e-05
-0.0174976 0.0016199 1e-05
-0.0172846 0.00166393 1e-05
-0.0170715 0.00170741 1e-05
-0.0168583 0.00175029 1e-05
-0.0166449 0.00179219 1e-05
-0.0163945 0.00184007 1e-05
-0.0163233 0.00185323 1e-05
-0.0162521 0.00186628 1e-05
-0.0161809 0.0018792 1e-05
-0.0161097 0.001892 1e-05
-0.0160387 0.00190458 1e-05
-0.0157586 0.00195348 1e-05
-0.0154779 0.00199929 1e-05
-0.0151968 0.00204223 1e-05
-0.0149154 0.00208281 1e-05
-0.0146381 0.00212131 1e-05
-0.0143838 0.00215524 1e-05
-0.0141292 0.00218764 1e-05
-0.0138745 0.00221854 1e-05
-0.0136196 0.00224797 1e-05
-0.0132934 0.00228365 1e-05
-0.013279 0.00228512 1e-05
-0.0132646 0.00228658 1e-05
-0.0132502 0.00228804 1e-05
-0.0132358 0.00228949 1e-05
-0.013221 0.00229098 1e-05
-0.0129773 0.00231543 1e-05
-0.0127335 0.00233864 1e-05
-0.0124896 0.00236059 1e-05
-0.0122455 0.00238127 1e-05
-0.0120025 0.00240055 1e-05
-0.0117547 0.00241907 1e-05
-0.0115067 0.00243625 1e-05
-0.0112587 0.0024523 1e-05
-0.0110106 0.00246733 1e-05
-0.0107632 0.00248136 1e-05
-0.0105252 0.00249392 1e-05
-0.0102872 0.00250549 1e-05
-0.0100491 0.00251605 1e-05
-0.00981105 0.00252579 1e-05
-0.00957337 0.00253476 1e-05
-0.00934491 0.00254267 1e-05
-0.00911643 0.00254982 1e-05
-0.00888792 0.0025562 1e-05
-0.0086594 0.00256183 1e-05
-0.00843108 0.00256682 1e-05
-0.00821175 0.002571 1e-05
-0.00799241 0.00257456 1e-05
-0.00777306 0.0025775 1e-05
-0.0075537 0.00257975 1e-05
-0.00733443 0.00258139 1e-05
-0.00712387 0.0025824 1e-05
-0.0069133 0.00258286 1e-05
-0.00670273 0.00258277 1e-05
-0.00649216 0.00258199 1e-05
-0.0062816 0.00258058 1e-05
-0.00607944 0.00257863 1e-05
-0.0058773 0.00257613 1e-05
-0.00567516 0.00257308 1e-05
-0.00547303 0.0025693 1e-05
-0.00527083 0.00256479 1e-05
-0.00507675 0.00255977 1e-05
-0.00488269 0.00255412 1e-05
-0.00468865 0.00254785 1e-05
-0.00449464 0.00254076 1e-05
-0.00430044 0.00253275 1e-05
-0.00411412 0.00252419 1e-05
-0.00392783 0.00251484 1e-05
-0.00374159 0.0025047 1e-05
-0.0035554 0.00249362 1e-05
-0.00336883 0.00248129 1e-05
-0.00318995 0.00246831 1e-05
-0.00301115 0.00245426 1e-05
-0.00283245 0.00243908 1e-05
-0.00265385 0.00242262 1e-05
-0.00247443 0.00240462 1e-05
-0.0023027 0.00238581 1e-05
-0.00213114 0.00236547 1e-05
-0.00195982 0.00234326 1e-05
-0.00178874 0.00231918 1e-05
-0.00161577 0.00229295 1e-05
-0.00161335 0.00229256 1e-05
-0.00161092 0.00229216 1e-05
-0.0016085 0.00229177 1e-05
-0.00160607 0.00229137 1e-05
-0.00160368 0.00229098 1e-05
-0.00144123 0.00226435 1e-05
-0.00127917 0.00223543 1e-05
-0.00111752 0.0022043 1e-05
-0.000956302 0.00217099 1e-05
-0.000791418 0.00213446 1e-05
-0.000633135 0.00209644 1e-05
-0.000475554 0.00205561 1e-05
-0.000318713 0.00201201 1e-05
-0.000162818 0.00196515 1e-05
0 0.00191212 1e-05
3.88172e-05 0.00189843 1e-05
7.75265e-05 0.00188443 1e-05
0.000116129 0.00187015 1e-05
0.000154628 0.00185558 1e-05
0.000185862 0.0018435 1e-05
0.000254367 0.00181655 1e-05
0.000322477 0.00178861 1e-05
0.000390177 0.00175969 1e-05
0.000457454 0.0017298 1e-05
0.000528387 0.00169713 1e-05
0.000634886 0.00164625 1e-05
0.00074028 0.00159312 1e-05
0.000844515 0.00153775 1e-05
0.000947629 0.00148033 1e-05
0.00102568 0.00143477 1e-05
0.00103272 0.00143051 1e-05
0.00103975 0.00142624 1e-05
0.00104678 0.00142196 1e-05
0.0010538 0.00141767 1e-05
0.00106088 0.00141332 1e-05
0.00116821 0.00134726 1e-05
0.00127404 0.00127883 1e-05
0.00137828 0.001208 1e-05
0.001481 0.00113498 1e-05
0.00159752 0.00104876 1e-05
0.00159844 0.00104804 1e-05
0.00159937 0.00104732 1e-05
0.00160029 0.0010466 1e-05
0.00160121 0.00104589 1e-05
0.00160213 0.00104517 1e-05
0.00169695 0.000971469 1e-05
0.00179035 0.000895985 1e-05
0.00188226 0.000818692 1e-05
0.00197275 0.000739745 1e-05
0.00204315 0.000676407 1e-05
0.00206219 0.00065885 1e-05
0.00208115 0.000641213 1e-05
0.00210003 0.000623495 1e-05
0.00211886 0.000605719 1e-05
0.00213833 0.000587237 1e-05
0.00219252 0.000535452 1e-05
0.00224619 0.000483129 1e-05
0.00229932 0.000430258 1e-05
0.00235189 0.000376833 1e-05
0.00239896 0.000328274 1e-05
0.00245583 0.00026875 1e-05
0.00251209 0.000208642 1e-05
0.00256774 0.000147967 1e-05
0.00262289 8.68376e-05 1e-05
0.00268334 1.86755e-05 1e-05
0.00268659 1.49404e-05 1e-05
0.00268983 1.12034e-05 1e-05
0.00269308 7.46447e-06 1e-05
0.00269632 3.72365e-06 1e-05
0.00269954 0 1e-05
0.00276332 -7.37389e-05 1e-05
0.00282648 -0.000148015 1e-05
0.00288899 -0.000222834 1e-05
0.00295083 -0.000298209 1e-05
0.00300773 -0.000368664 1e-05
0.0030527 -0.000425177 1e-05
0.00309737 -0.000481931 1e-05
0.00314173 -0.000538922 1e-05
0.00318585 -0.000596106 1e-05
0.00323259 -0.000657255 1e-05
0.00325118 -0.000681825 1e-05
0.00326971 -0.000706439 1e-05
0.00328819 -0.000731096 1e-05
0.00330661 -0.000755796 1e-05
0.00332466 -0.000780104 1e-05
0.00339255 -0.000871891 1e-05
0.00345982 -0.000964126 1e-05
0.00352646 -0.00105682 1e-05
0.00359254 -0.00114991 1e-05
0.00365507 -0.00123897 1e-05
0.00368128 -0.0012767 1e-05
0.00370741 -0.00131449 1e-05
0.00373346 -0.00135233 1e-05
0.00375946 -0.0013902 1e-05
0.00378611 -0.00142914 1e-05
0.00382994 -0.0014934 1e-05
0.00387356 -0.00155782 1e-05
0.00391695 -0.00162238 1e-05
0.0039601 -0.00168711 1e-05
0.00400206 -0.00175043 1e-05
0.00407044 -0.00185421 1e-05
0.00413837 -0.00195828 1e-05
0.00420585 -0.00206265 1e-05
0.00427303 -0.00216721 1e-05
0.00434393 -0.00227829 1e-05
0.00434925 -0.00228668 1e-05
0.00435456 -0.00229508 1e-05
0.00435988 -0.00230348 1e-05
0.00436518 -0.00231188 1e-05
0.00437048 -0.00232026 1e-05
0.00445062 -0.0024472 1e-05
0.00453029 -0.00257443 1e-05
0.00460955 -0.00270192 1e-05
0.00468841 -0.00282965 1e-05
0.00476544 -0.00295488 1e-05
0.00479357 -0.00300079 1e-05
0.00482167 -0.00304673 1e-05
0.00484973 -0.00309268 1e-05
0.00487779 -0.00313865 1e-05
0.00490609 -0.00318503 1e-05
0.00496422 -0.00328032 1e-05
0.0050222 -0.00337569 1e-05
0.00508002 -0.00347116 1e-05
0.0051377 -0.00356672 1e-05
0.0051948 -0.00366142 1e-05
0.00525037 -0.00375367 1e-05
0.00530587 -0.00384594 1e-05
0.00536132 -0.00393825 1e-05
0.00541679 -0.00403056 1e-05
0.00547262 -0.00412336 1e-05
0.00551171 -0.00418826 1e-05
0.00555076 -0.00425317 1e-05
0.00558977 -0.0043181 1e-05
0.00562877 -0.00438305 1e-05
0.00566767 -0.00444781 1e-05
0.00574285 -0.00457288 1e-05
0.00581806 -0.00469793 1e-05
0.00589329 -0.00482296 1e-05
0.00596867 -0.00494791 1e-05
0.00604356 -0.00507155 1e-05
0.00607411 -0.0051218 1e-05
0.00610467 -0.00517205 1e-05
0.00613523 -0.0052223 1e-05
0.0061658 -0.00527254 1e-05
0.00619644 -0.00532281 1e-05
0.00628094 -0.00546126 1e-05
0.00636564 -0.00559959 1e-05
0.00645055 -0.00573779 1e-05
0.00653576 -0.0058758 1e-05
0.00661893 -0.00600958 1e-05
0.0066548 -0.00606688 1e-05
0.0066907 -0.00612415 1e-05
0.00672663 -0.00618141 1e-05
0.00676262 -0.00623864 1e-05
0.00679885 -0.00629608 1e-05
0.00687883 -0.00642257 1e-05
0.00695913 -0.00654887 1e-05
0.00703974 -0.00667497 1e-05
0.00712071 -0.00680083 1e-05
0.00719878 -0.00692115 1e-05
0.00725857 -0.00701256 1e-05
0.00731852 -0.00710387 1e-05
0.00737863 -0.00719508 1e-05
0.00743897 -0.00728614 1e-05
0.00750037 -0.00737826 1e-05
0.00755692 -0.00746259 1e-05
0.00761367 -0.00754679 1e-05
0.00767063 -0.00763085 1e-05
0.0077278 -0.00771477 1e-05
0.00778313 -0.00779547 1e-05
0.00789154 -0.00795252 1e-05
0.0080006 -0.00810911 1e-05
0.00811035 -0.00826523 1e-05
0.00822098 -0.00842072 1e-05
0.00833635 -0.00858088 1e-05
0.00834349 -0.00859065 1e-05
0.00835063 -0.00860043 1e-05
0.00835777 -0.0086102 1e-05
0.00836492 -0.00861997 1e-05
0.00837203 -0.00862969 1e-05
0.00849073 -0.00879166 1e-05
0.00861035 -0.00895295 1e-05
0.00873097 -0.00911349 1e-05
0.00885265 -0.00927324 1e-05
0.00896551 -0.00941918 1e-05
0.00901163 -0.00947797 1e-05
0.00905789 -0.00953666 1e-05
0.00910429 -0.00959523 1e-05
0.00915085 -0.00965367 1e-05
0.00919852 -0.00971317 1e-05
0.00927154 -0.00980378 1e-05
0.00934492 -0.00989408 1e-05
0.00941869 -0.00998408 1e-05
0.00949283 -0.0100738 1e-05
0.0095636 -0.0101586 1e-05
[...]
POINT_DATA 12278
 FIELD attributes 2
p 1 12278 float
177196 177278 177351 177414 177468 177513
109130 109148 109164 109179 109191 109201
87937.2 87946.8 87956.2 87965.3 87974.3 87982.7
80120.4 80126.7 80132.9 80139 80145.1 80151.1
77330.3 77339.6 77348.8 77358 77367.2 77376.4
77748.5 77762.1 77775.7 77789.2 77802.8 77816.3
81282.5 81294.9 81307.2 81319.2 81331.2 81342.9
91109.7 91129.4 91148.4 91166.7 91184.3 91201.2
117542 117575 117605 117633 117659 117683
215661 215471 215279 215085 214889 214691
177196 173591 169264 164686 163019 159088 155705 153054 144889 134848 129405 123976 120038 119427 118575 112530 106631 102509 101614 100747 99764.6 98782.3 97355.5 95887.1 94171.3 93804.9 93437.9 93070.4 92589.5 92091.9 90172.3 88368.4 86854.2 86066.8 85289.9 84603.9 83938.9 83288.8 82636.8 81803.3 81768.2 81739.1 81710.9 81682.8 81653.8 81121.1 80588.8 80057 79525.7 79100.6 78674.2 78264.9 77867 77491.2 77125.1 76775 76424.5 76100.6 75798.9 75497.7 75208 74918.1 74639.4 74376.4 74113.5 73859.7 73605.7 73355.5 73119.1 72882.8 72653.6 72424.5 72193.8 71974 71754.6 71540.7 71327 71108.1 70897 70686.1 70478.7 70271.6 70058.3 69845.7 69633.4 69421.3 69209.6 68994.1 68766 68538.2 68305.2 68069.6 67825.5 67572.4 67306.5 67026.8 66713.2 66401.2 66090.8 65777.3 65772.1 65765.8 65759.3 65752.9 65746.6 65361.5 64982 64607.9 64215.6 63742.9 63228.1 62719 62023.9 61252 60440.9 60183.5 59936.8 59701.3 59466.5 59275.9 58731 58183.9 57634.8 57171.8 56713.9 56110.8 55507.9 54969.4 54429.6 54015.4 53965.5 53915.6 53868.2 53827.4 53786.1 53234.5 52675.8 52157.1 51686.1 51138.3 51134.2 51130.1 51126.4 51123.1 51119.8 50693.3 50258.6 49858.5 49522.7 49253.7 49159.7 49065.2 48998.1 48932 48863.3 48671.5 48477.2 48281.1 48133.8 47999.4 47829.4 47663.4 47525.9 47386.3 47229.6 47220.8 47212 47203.2 47195.3 47187.7 47083.7 46971.1 46855.9 46742.3 46635 46599.5 46562.8 46523.4 46483.2 46439.5 46418.5 46397.4 46376.2 46354.1 46332.2 46306 46278.4 46240.8 46197.5 46155.2 46157.2 46158.8 46157.7 46156.5 46155.1 46143.1 46130.7 46117.9 46102.2 46086.3 46095 46102.9 46106.2 46109 46111.4 46110.5 46109.7 46108.8 46107.8 46106.8 46118.9 46131.1 46142.3 46151.5 46160.3 46170.7 46181 46190.9 46200.6 46210.5 46220.5 46230.5 46240.3 46249.9 46259.3 46277.8 46296.1 46314.5 46333 46351.6 46358.8 46365.9 46373.2 46380.8 46388.5 46411.3 46434.2 46457.7 46481.7 46505.7 46511.5 46517.3 46523.4 46529.9 46536.4 46560.2 46584.1 46608.9 46634.9 46660.4 46667.2 46674.1 46681.5 46689.4 46697.3 46718.3 46739.4 46761.3 46784.8 46807.5 46818.6 46829.8 46842.4 46855.6 46869 46882.9 46896.7 46910.8 46926.2 46941.1 46960.4 46979.9 47002.6 47025.9 47050.3 47051.9 47053.5 47055.1 47056.8 47058.5 47079.3 47101.4 47124.2 47149 47172.2 47178.7 47185.3 47192.8 47200.4 47208.2 47220.9 47233.7 47246.5 47260.3 47273.5 47289.4 47305.6 47323.6 47341.7 47361.2 47361.4 47361.7 47362 47362.3 47362.6 47379.4 47396.5 47413.7 47432.4 47450 47460.2 47470.9 47482.5 47494.2 47506.7 47510.4 47514.2 47517.9 47521.9 47525.9 47539.2 47553.3 47567.9 47583.8 47598.6 47607.7 47617.1 47627.3 47637.6 47648.7 47651.5 47654.3 47657.1 47660 47663 47674.5 47686.7 47699 47712.4 47725.3 47735.2 47745.7 47757.1 47768.5 47779.7 47781 47782.5 47784 47785.6 47787.1 47795.9 47804.8 47813.6 47822.9 47832.4 47840.8 47849.3 47858.8 47869.3 47879.4 47886.3 47894.2 47902.4 47910.6 47919.8 47919.9 47920 47920 47920.1 47920.2 47927.9 47935.5 47943.2 47951.2 47959.7 47965.5 47971.3 47978.1 47985.8 47993.2 47997.8 48002.9 48008.7 48014.5 48020.8 48022.7 48025.3 48027.9 48030.5 48033.2 48035.3 48037.4 48039.4 48041.5 48043.9 48047.2 48050.9 48054.5 48058.5 48063.2 48065 48066.8 48069.4 48072.9 48076.3 48076.9 48077.6 48079.2 48081.2 48083.4 48082.8 48083.1 48083.5 48083.8 48084.4 48083.7 48083.3 48082.9 48082.5 48082.1 48081.7 48081.4 48081 48080.6 48080.5 48078.3 48076.5 48074.5 48072.6 48071.5 48067.8 48064.4 48061.3 48058.7 48056.3 48051.4 48046.5 48042.2 48038.6 48035 48028.9 48022.8 48017.3 48012.4 48007.6 48000.4 47993.4 47986.7 47980.3 47974.2 47966 47958.1 47950.3 47942.5 47935.1 47925.9 47917 47908.1 47899.1 47890.3 47885.9 47881.6 47877.3 47873 47868.3 47862.7 47857.1 47851.5 47845.9 47840.4 47829.3 47818.3 47807.3 47796.2 47785.4 47773 47761 47748.9 47736.9 47725.1 47711.5 47698.4 47685.4 47672.4 47659.6 47645.1 47630.9 47616.9 47603 47589.2 47573.8 47558.5 47543.6 47528.8 47514 47497.8 47481.6 47465.7 47450 47434.3 47417.3 47400.3 47383.5 47366.9 47350.3 47332.5 47314.7 47297 47279.6 47262.2 47243.7 47225.1 47206.6 47188.3 47170.2 47150.9 47131.7 47112.4 47093.4 47074.4 47054.5 47034.6 47014.6 46994.8 46975.2 46954.6 46934.1 46913.4 46892.9 46872.6 46851.5 46830.3 46809 46787.8 46766.9 46745.2 46723.4 46701.6 46679.8 46658.2 46636 46613.7 46591.3 46568.9 46546.8 46524.1 46501.2 46478.3 46455.5 46432.8 46409.6 46386.2 46362.9 46339.5 46316.3 46292.6 46268.8 46245 46221.2 46197.5 46173.4 46149.2 46124.9 46100.7 46076.6 46052 46027.4 46002.8 45978.2 45953.6 45928.7 45903.7 45878.7 45853.7 45828.7 45803.5 45778.1 45752.8 45727.4 45702.1 45676.5 45650.8 45625.1 45599.4 45573.8 45547.8 45521.9 45495.9 45469.9 45443.9 45417.7 45391.4 45365.1 45338.8 45312.5 45286 45259.4 45232.9 45206.3 45179.8 45153 45126.2 45099.3 45072.5 45045.7 45018.6 44991.6 44964.5 44937.4 44910.4 44883.1 44855.8 44828.5 44801.2 44773.9 44746.4 44718.8 44691.3 44663.8 44636.2 44608.5 44580.8 44553 44525.3 44497.5 44469.6 44441.6 44413.7 44385.7 44357.8 44329.7 44301.5 44273.4 44245.2 44217.1 44188.7 44160.4 44132.1 44103.7 44075.4 44046.9 44018.4 43989.8 43961.3 43932.8 43904.1 43875.4 43846.7 43818 43789.3 43760.4 43731.5 43702.6 43673.8 43644.9 43615.8 43586.8 43557.7 43528.7 43499.6 43470.4 43441.2 43411.9 43382.7 43353.5 43324.1 43294.7 43265.3 43235.9 43206.5 43177 43147.4 43117.8 43088.3 43058.7 43029 42999.2 42969.5 42939.8 42910 42880.2 42850.2 42820.3 42790.4 42760.5 42730.5 42700.4 42670.3 42640.3 42610.2 42580 42549.7 42519.5 42489.2 42459 42428.6 42398.2 42367.8 42337.4 42306.9 42276.4 42245.8 42215.2 42184.6 42154 42123.3 42092.5 42061.7 42031 42000.2 41969.3 41938.4 41907.4 41876.5 41845.5 41814.4 41783.3 41752.2 41721.1 41689.9 41658.6 41627.3 41596 41564.7 41533.4 41501.9 41470.5 41439 41407.5 41375.9 41344.3 41312.6 41280.9 41249.3 41217.5 41185.7 41153.8 41122 41090.1 41058.2 41026.1 40994.1 40962 40929.9 40897.8 40865.6 40833.3 40801 40768.8 40736.4 40704 40671.5 40639.1 40606.6 40574.1 40541.4 40508.7 40476.1 40443.4 40410.6 40377.8 40344.9 40312 40279.1 40246.1 40213.1 40180 40146.9 40113.7 40080.6 40047.3 40014 39980.6 39947.3 39913.9 39880.4 39846.8 39813.3 39779.7 39746.1 39712.4 39678.6 39644.8 39611 39577.2 39543.2 39509.2 39475.2 39441.2 39407.1 39372.9 39338.7 39304.4 39270.2 39235.8 39201.4 39166.9 39132.4 39097.9 39063.4 39028.7 38994 38959.2 38924.5 38889.7 38854.8 38819.8 38784.8 38749.8 38714.8 38679.6 38644.4 38609.2 38573.9 38538.6 38503.2 38467.7 38432.2 38396.8 38361.2 38325.5 38289.8 38254 38218.3 38182.5 38146.5 38110.5 38074.5 38038.5 38002.4 37966.2 37930 37893.7 37857.4 37821.1 37784.6 37748.1 37711.6 37675 37638.4 37601.6 37564.9 37528 37491.2 37454.3 37417.3 37380.3 37343.2 37306.1 37268.9 37231.6 37194.3 37156.9 37119.5 37082.1 37044.5 37006.9 36969.2 36931.6 36893.9 36856 36818.1 36780.2 36742.2 36704.2 36666.1 36627.9 36589.7 36551.4 36513.1 36474.7 36436.2 36397.7 36359.2 36320.6 36281.8 36243.1 36204.3 36165.4 36126.6 36087.5 36048.5 36009.4 35970.2 35931.1 35891.7 35852.4 35813 35773.5 35734.1 35694.4 35654.8 35615.1 35575.3 35535.5 35495.6 35455.7 35415.6 35375.6 35335.5 35295.3 35255 35214.7 35174.3 35133.9 35093.4 35052.8 35012.2 34971.5 34930.8 34889.9 34849 34808.1 34767.1 34726.1 34684.9 34643.7 34602.4 34561.1 34519.8 34478.3 34436.8 34395.2 34353.5 34311.9 34270.1 34228.2 34186.3 34144.4 34102.4 34060.2 34018.1 33975.8 33933.5 33891.2 33848.8 33806.3 33763.7 33721.1 33678.5 33635.7 33592.8 33550 33507 33464 33420.9 33377.7 33334.5 33291.2 33247.9 33204.5 33161 33117.4 33073.8 33030.2 32986.3 32942.5 32898.6 32854.7 32810.7 32766.5 32722.4 32678.1 32633.8 32589.5 32545 32500.5 32455.9 32411.3 32366.6 32321.8 32276.9 32232 32187 32142 32096.8 32051.6 32006.3 31960.9 31915.6 31870 31824.5 31778.8 31733.1 31687.4 31641.5 31595.6 31549.6 31503.6 31457.5 31411.2 31365 31318.6 31272.2 31225.8 31179.1 31132.5 31085.8 31039 30992.2 30945.3 30898.3 30851.2 30804 30756.9 30709.5 30662.2 30614.7 30567.2 30519.7 30472 30424.3 30376.4 30328.6 30280.7 30232.6 30184.5 30136.3 30088 30039.8 29991.3 29942.8 29894.3 29845.6 29797 29748.1 29699.3 29650.3 29601.3 29552.3 29503.1 29453.8 29404.5 29355.1 29305.7 29256.1 29206.4 29156.7 29106.9 29057.1 29007.1 28957.1 28907 28856.8 28806.7 28756.2 28705.8 28655.3 28604.8 28554.2 28503.4 28452.6 28401.7 28350.7 28299.7 28248.5 28197.3 28146 28094.6 28043.2 27991.6 27940 27888.3 27836.5 27784.7 27732.7 27680.6 27628.5 27576.3 27524.1 27471.7 27419.2 27366.7 27314.1 27261.4 27208.6 27155.7 27102.7 27049.7 26996.7 26943.4 26890 26836.7 26783.2 26729.8 26676 26622.3 26568.5 26514.6 26460.8 26406.6 26352.4 26298.2 26243.9 26189.6 26135.1 26080.5 26025.9 25971.2 25916.5 25861.5 25806.5 25751.5 25696.5 25641.4 25586.1 25530.7 25475.4 25420 25364.6 25308.9 25253.3 25197.7 25142.1 25086.4 25030.5 24974.7 24919 24863.3 24807.5 24751.6 24695.9 24640.2 24584.5 24528.9 24473.1 24417.8 24362.7 24307.7 24253 24198.3 24143.3 24088.3 24033.3 23977.9 23923.2 23874.6 23825.9 23777.3 23733.5 23684.4 23619 23553.5 23488 23413.6 23362.4 23332 23301.9 23272.2 23258.2 23254 23249.8 23245.5 23241.3 23239.7 23237.1 23231.7 23226.4 23221 23215.2 23188.3 23161.2 23133.8 23106.2 23062.7 22986.8 22917.8 22848.9 22780 22723.7 22672.6 22616.3 22559.9 22503.5 22440.8 22373.1 22305 22236.9 22168.8 22100.4 22029.1 21955.8 21882.6 21809.4 21734 21655.8 21576 21496.2 21416.4 21335 21250.7 21164.5 21078.4 20992.2 20904.3 20813.3 20720.3 20627.4 20534.3 20439.5 20341.5 20241.2 20140.9 20040.5 19938.2 19832.3 19724.1 19615.8 19507.4 19397 19282.6 19165.5 19048.3 18931 18811.2 18687.2 18560.4 18433.5 18306.5 18177.1 18043 17905.1 17766.9 17628.5 17486.7 17339.7 17190 17040.1 16890.2 16737.9 16580.1 16415.5 16250.6 16085.3 15913.9 15736.1 15558 15379.8 15201.6 15023.6 14838.9 14639.4 14439.1 14237.9 14022.7 13799.5 13586.3 13373.8 13161.9 12960.6 12751.7 12504.2 12254.4 12002.5 11713.2 11413 11157.6 10905.1 10655.4 10450.6 10238 9922.25 9598.67 9266.31 8833.61 8384.61 8071.58 7773.96 7494.64 7349.54 7198.51 6802.58 6358.11 5839.29 5089.89 4311.57 3778.56 3397.63 3251.14 3316.89 3383.22 3363.84 2777.34 1388.26 0