# vtk DataFile Version 2.0
track0
ASCII
DATASET POLYDATA
POINTS 12278 float
-0.0205 0.001 1e-05
-0.02052 0.000999216 1e-05
-0.02054 0.000998592 1e-05
-0.02056 0.000998126 1e-05
-0.02058 0.000997818 1e-05
-0.0206 0.000997665 1e-05
-0.0205 0.00367778 1e-05
-0.02052 0.00367703 1e-05
-0.02054 0.00367643 1e-05
-0.02056 0.00367599 1e-05
-0.02058 0.00367569 1e-05
-0.0206 0.00367554 1e-05
-0.0205 0.00635556 1e-05
-0.02052 0.00635527 1e-05
-0.02054 0.00635505 1e-05
-0.02056 0.00635488 1e-05
-0.02058 0.00635476 1e-05
-0.0206 0.00635471 1e-05
-0.0205 0.00903333 1e-05
-0.02052 0.00903311 1e-05
-0.02054 0.00903293 1e-05
-0.02056 0.0090328 1e-05
-0.02058 0.00903271 1e-05
-0.0206 0.00903266 1e-05
-0.0205 0.0117111 1e-05
-0.02052 0.0117111 1e-05
-0.02054 0.011711 1e-05
-0.02056 0.011711 1e-05
-0.02058 0.011711 1e-05
-0.0206 0.011711 1e-05
-0.0205 0.0143889 1e-05
-0.02052 0.014389 1e-05
-0.02054 0.014389 1e-05
-0.02056 0.0143891 1e-05
-0.02058 0.0143891 1e-05
-0.0206 0.0143891 1e-05
-0.0205 0.0170667 1e-05
-0.02052 0.017067 1e-05
-0.02054 0.0170672 1e-05
-0.02056 0.0170674 1e-05
-0.02058 0.0170675 1e-05
-0.0206 0.0170676 1e-05
-0.0205 0.0197444 1e-05
-0.02052 0.019745 1e-05
-0.02054 0.0197454 1e-05
-0.02056 0.0197457 1e-05
-0.02058 0.0197459 1e-05
-0.0206 0.019746 1e-05
-0.0205 0.0224222 1e-05
-0.02052 0.022423 1e-05
-0.02054 0.0224236 1e-05
-0.02056 0.0224241 1e-05
-0.02058 0.0224244 1e-05
-0.0206 0.0224245 1e-05
-0.0205 0.0251 1e-05
-0.02052 0.0251003 1e-05
-0.02054 0.0251005 1e-05
-0.02056 0.0251007 1e-05
-0.02058 0.0251008 1e-05
-0.0206 0.0251008 1e-05
-0.0205 0.001 1e-05
-0.0203632 0.00100536 1e-05
-0.0202266 0.00101331 1e-05
-0.0200901 0.00102296 1e-05
-0.0200427 0.00102682 1e-05
-0.0198376 0.00104418 1e-05
-0.0196338 0.00107322 1e-05
-0.0194327 0.00111734 1e-05
-0.0192367 0.00118024 1e-05
-0.0190172 0.00124951 1e-05
-0.0189002 0.00128348 1e-05
-0.0187827 0.00131598 1e-05
-0.0186649 0.001347 1e-05
-0.0185468 0.001377 1e-05
-0.0183807 0.00141936 1e-05
-0.0182041 0.00146458 1e-05
-0.0180267 0.00150692 1e-05
-0.0178487 0.00154639 1e-05
-0.0176703 0.00158389 1e-05
-0.0174976 0.0016199 1e-05
-0.0172846 0.00166393 1e-05
-0.0170715 0.00170741 1e-05
-0.0168583 0.00175029 1e-05
-0.0166449 0.00179219 1e-05
-0.0163945 0.00184007 1e-05
-0.0163233 0.00185323 1e-05
-0.0162521 0.00186628 1e-05
-0.0161809 0.0018792 1e-05
-0.0161097 0.001892 1e-05
-0.0160387 0.00190458 1e-05
-0.0157586 0.00195348 1e-05
-0.0154779 0.00199929 1e-05
-0.0151968 0.00204223 1e-05
-0.0149154 0.00208281 1e-05
-0.0146381 0.00212131 1e-05
-0.0143838 0.00215524 1e-05
-0.0141292 0.00218764 1e-05
-0.0138745 0.00221854 1e-05
-0.0136196 0.00224797 1e-05
-0.0132934 0.00228365 1e-05
-0.013279 0.00228512 1e-05
-0.0132646 0.00228658 1e-05
-0.0132502 0.00228804 1e-05
-0.0132358 0.00228949 1e-05
-0.013221 0.00229098 1e-05
-0.0129773 0.00231543 1e-05
-0.0127335 0.00233864 1e-05
-0.0124896 0.00236059 1e-05
-0.0122455 0.00238127 1e-05
-0.0120025 0.00240055 1e-05
-0.0117547 0.00241907 1e-05
-0.0115067 0.00243625 1e-05
-0.0112587 0.0024523 1e-05
-0.0110106 0.00246733 1e-05
-0.0107632 0.00248136 1e-05
-0.0105252 0.00249392 1e-05
-0.0102872 0.00250549 1e-05
-0.0100491 0.00251605 1e-05
-0.00981105 0.00252579 1e-05
-0.00957337 0.00253476 1e-05
-0.00934491 0.00254267 1e-05
-0.00911643 0.00254982 1e-05
-0.00888792 0.0025562 1e-05
-0.0086594 0.00256183 1e-05
-0.00843108 0.00256682 1e-05
-0.00821175 0.002571 1e-05
-0.00799241 0.00257456 1e-05
-0.00777306 0.0025775 1e-05
-0.0075537 0.00257975 1e-05
-0.00733443 0.00258139 1e-05
-0.00712387 0.0025824 1e-05
-0.0069133 0.00258286 1e-05
-0.00670273 0.00258277 1e-05
-0.00649216 0.00258199 1e-05
-0.0062816 0.00258058 1e-05
-0.00607944 0.00257863 1e-05
-0.0058773 0.00257613 1e-05
-0.00567516 0.00257308 1e-05
-0.00547303 0.0025693 1e-05
-0.00527083 0.00256479 1e-05
-0.00507675 0.00255977 1e-05
-0.00488269 0.00255412 1e-05
-0.00468865 0.00254785 1e-05
-0.00449464 0.00254076 1e-05
-0.00430044 0.00253275 1e-05
-0.00411412 0.00252419 1e-05
-0.00392783 0.00251484 1e-05
-0.00374159 0.0025047 1e-05
-0.0035554 0.00249362 1e-05
-0.00336883 0.00248129 1e-05
-0.00318995 0.00246831 1e-05
-0.00301115 0.00245426 1e-05
-0.00283245 0.00243908 1e-05
-0.00265385 0.00242262 1e-05
-0.00247443 0.00240462 1e-05
-0.0023027 0.00238581 1e-05
-0.00213114 0.00236547 1e-05
-0.00195982 0.00234326 1e-05
-0.00178874 0.00231918 1e-05
-0.00161577 0.00229295 1e-05
-0.00161335 0.00229256 1e-05
-0.00161092 0.00229216 1e-05
-0.0016085 0.00229177 1e-05
-0.00160607 0.00229137 1e-05
-0.00160368 0.00229098 1e-05
-0.00144123 0.00226435 1e-05
-0.00127917 0.00223543 1e-05
-0.00111752 0.0022043 1e-05
-0.000956302 0.00217099 1e-05
-0.000791418 0.00213446 1e-05
-0.000633135 0.00209644 1e-05
-0.000475554 0.00205561 1e-05
-0.000318713 0.00201201 1e-05
-0.000162818 0.00196515 1e-05
0 0.00191212 1e-05
3.88172e-05 0.00189843 1e-05
7.75265e-05 0.00188443 1e-05
0.000116129 0.00187015 1e-05
0.000154628 0.00185558 1e-05
0.000185862 0.0018435 1e-05
0.000254367 0.00181655 1e-05
0.000322477 0.00178861 1e-05
0.000390177 0.00175969 1e-05
0.000457454 0.0017298 1e-05
0.000528387 0.00169713 1e-05
0.000634886 0.00164625 1e-05
0.00074028 0.00159312 1e-05
0.000844515 0.00153775 1e-05
0.000947629 0.00148033 1e-05
0.00102568 0.00143477 1e-05
0.00103272 0.00143051 1e-05
0.00103975 0.00142624 1e-05
0.00104678 0.00142196 1e-05
0.0010538 0.00141767 1e-05
0.00106088 0.00141332 1e-05
0.00116821 0.00134726 1e-05
0.00127404 0.00127883 1e-05
0.00137828 0.001208 1e-05
0.001481 0.00113498 1e-05
0.00159752 0.00104876 1e-05
0.00159844 0.00104804 1e-05
0.00159937 0.00104732 1e-05
0.00160029 0.0010466 1e-05
0.00160121 0.00104589 1e-05
0.00160213 0.00104517 1e-05
0.00169695 0.000971469 1e-05
0.00179035 0.000895985 1e-05
0.00188226 0.000818692 1e-05
0.00197275 0.000739745 1e-05
0.00204315 0.000676407 1e-05
0.00206219 0.00065885 1e-05
0.00208115 0.000641213 1e-05
0.00210003 0.000623495 1e-05
0.00211886 0.000605719 1e-05
0.00213833 0.000587237 1e-05
0.00219252 0.000535452 1e-05
0.00224619 0.000483129 1e-05
0.00229932 0.000430258 1e-05
0.00235189 0.000376833 1e-05
0.00239896 0.000328274 1e-05
0.00245583 0.00026875 1e-05
0.00251209 0.000208642 1e-05
0.00256774 0.000147967 1e-05
0.00262289 8.68376e-05 1e-05
0.00268334 1.86755e-05 1e-05
0.00268659 1.49404e-05 1e-05
0.00268983 1.12034e-05 1e-05
0.00269308 7.46447e-06 1e-05
0.00269632 3.72365e-06 1e-05
0.00269954 0 1e-05
0.00276332 -7.37389e-05 1e-05
0.00282648 -0.000148015 1e-05
0.00288899 -0.000222834 1e-05
0.00295083 -0.000298209 1e-05
0.00300773 -0.000368664 1e-05
0.0030527 -0.000425177 1e-05
0.00309737 -0.000481931 1e-05
0.00314173 -0.000538922 1e-05
0.00318585 -0.000596106 1e-05
0.00323259 -0.000657255 1e-05
0.00325118 -0.000681825 1e-05
0.00326971 -0.000706439 1e-05
0.00328819 -0.000731096 1e-05
0.00330661 -0.000755796 1e-05
0.00332466 -0.000780104 1e-05
0.00339255 -0.000871891 1e-05
0.00345982 -0.000964126 1e-05
0.00352646 -0.00105682 1e-05
0.00359254 -0.00114991 1e-05
0.00365507 -0.00123897 1e-05
0.00368128 -0.0012767 1e-05
0.00370741 -0.00131449 1e-05
0.00373346 -0.00135233 1e-05
0.00375946 -0.0013902 1e-05
0.00378611 -0.00142914 1e-05
0.00382994 -0.0014934 1e-05
0.00387356 -0.00155782 1e-05
0.00391695 -0.00162238 1e-05
0.0039601 -0.00168711 1e-05
0.00400206 -0.00175043 1e-05
0.00407044 -0.00185421 1e-05
0.00413837 -0.00195828 1e-05
0.00420585 -0.00206265 1e-05
0.00427303 -0.00216721 1e-05
0.00434393 -0.00227829 1e-05
0.00434925 -0.00228668 1e-05
0.00435456 -0.00229508 1e-05
0.00435988 -0.00230348 1e-05
0.00436518 -0.00231188 1e-05
0.00437048 -0.00232026 1e-05
0.00445062 -0.0024472 1e-05
0.00453029 -0.00257443 1e-05
0.00460955 -0.00270192 1e-05
0.00468841 -0.00282965 1e-05
0.00476544 -0.00295488 1e-05
0.00479357 -0.00300079 1e-05
0.00482167 -0.00304673 1e-05
0.00484973 -0.00309268 1e-05
0.00487779 -0.00313865 1e-05
0.00490609 -0.00318503 1e-05
0.00496422 -0.00328032 1e-05
0.0050222 -0.00337569 1e-05
0.00508002 -0.00347116 1e-05
0.0051377 -0.00356672 1e-05
0.0051948 -0.00366142 1e-05
0.00525037 -0.00375367 1e-05
0.00530587 -0.00384594 1e-05
0.00536132 -0.00393825 1e-05
0.00541679 -0.00403056 1e-05
0.00547262 -0.00412336 1e-05
0.00551171 -0.00418826 1e-05
0.00555076 -0.00425317 1e-05
0.00558977 -0.0043181 1e-05
0.00562877 -0.00438305 1e-05
0.00566767 -0.00444781 1e-05
0.00574285 -0.00457288 1e-05
0.00581806 -0.00469793 1e-05
0.00589329 -0.00482296 1e-05
0.00596867 -0.00494791 1e-05
0.00604356 -0.00507155 1e-05
0.00607411 -0.0051218 1e-05
0.00610467 -0.00517205 1e-05
0.00613523 -0.0052223 1e-05
0.0061658 -0.00527254 1e-05
0.00619644 -0.00532281 1e-05
0.00628094 -0.00546126 1e-05
0.00636564 -0.00559959 1e-05
0.00645055 -0.00573779 1e-05
0.00653576 -0.0058758 1e-05
0.00661893 -0.00600958 1e-05
0.0066548 -0.00606688 1e-05
0.0066907 -0.00612415 1e-05
0.00672663 -0.00618141 1e-05
0.00676262 -0.00623864 1e-05
0.00679885 -0.00629608 1e-05
0.00687883 -0.00642257 1e-05
0.00695913 -0.00654887 1e-05
0.00703974 -0.00667497 1e-05
0.00712071 -0.00680083 1e-05
0.00719878 -0.00692115 1e-05
0.00725857 -0.00701256 1e-05
0.00731852 -0.00710387 1e-05
0.00737863 -0.00719508 1e-05
0.00743897 -0.00728614 1e-05
0.00750037 -0.00737826 1e-05
0.00755692 -0.00746259 1e-05
0.00761367 -0.00754679 1e-05
0.00767063 -0.00763085 1e-05
0.0077278 -0.00771477 1e-05
0.00778313 -0.00779547 1e-05
0.00789154 -0.00795252 1e-05
0.0080006 -0.00810911 1e-05
0.00811035 -0.00826523 1e-05
0.00822098 -0.00842072 1e-05
0.00833635 -0.00858088 1e-05
0.00834349 -0.00859065 1e-05
0.00835063 -0.00860043 1e-05
0.00835777 -0.0086102 1e-05
0.00836492 -0.00861997 1e-05
0.00837203 -0.00862969 1e-05
0.00849073 -0.00879166 1e-05
0.00861035 -0.00895295 1e-05
0.00873097 -0.00911349 1e-05
0.00885265 -0.00927324 1e-05
0.00896551 -0.00941918 1e-05
0.00901163 -0.00947797 1e-05
0.00905789 -0.00953666 1e-05
0.00910429 -0.00959523 1e-05
0.00915085 -0.00965367 1e-05
0.00919852 -0.00971317 1e-05
0.00927154 -0.00980378 1e-05
0.00934492 -0.00989408 1e-05
0.00941869 -0.00998408 1e-05
0.00949283 -0.0100738 1e-05
0.0095636 -0.0101586 1e-05
[...]
POINT_DATA 12278
 FIELD attributes 1
U 3 12278 float
9.72339 	0.381311 	0 9.77872 	0.305049 	0 9.83405 	0.228765 	0 9.8894 	0.152465 	0 9.94476 	0.0761531 	0 10 	0 	0
10.0671 	0.375477 	0 10.0537 	0.300382 	0 10.0403 	0.225268 	0 10.0268 	0.150139 	0 10.0134 	0.0749996 	0 10 	0 	0
10.0364 	0.141565 	0 10.0291 	0.113299 	0 10.0218 	0.085085 	0 10.0145 	0.0569236 	0 10.0071 	0.028815 	0 10 	0 	0
10.0137 	0.111508 	0 10.011 	0.0892067 	0 10.0082 	0.0669045 	0 10.0055 	0.044602 	0 10.0027 	0.0222991 	0 10 	0 	0
10.0097 	0.0196444 	0 10.0078 	0.0157155 	0 10.0058 	0.0117866 	0 10.0039 	0.00785775 	0 10.0019 	0.00392886 	0 10 	0 	0
10.0102 	-0.0372963 	0 10.0082 	-0.0298371 	0 10.0061 	-0.0223778 	0 10.0041 	-0.0149185 	0 10.002 	-0.00745917 	0 10 	0 	0
10.0174 	-0.149006 	0 10.0139 	-0.119204 	0 10.0105 	-0.0894022 	0 10.007 	-0.0595989 	0 10.0035 	-0.0297951 	0 10 	0 	0
10.0362 	-0.265909 	0 10.029 	-0.212727 	0 10.0217 	-0.159538 	0 10.0145 	-0.106345 	0 10.0072 	-0.0531474 	0 10 	0 	0
10.0563 	-0.387171 	0 10.045 	-0.309737 	0 10.0338 	-0.232282 	0 10.0225 	-0.154811 	0 10.0112 	-0.0773289 	0 10 	0 	0
8.30133 	-0.114495 	0 8.4287 	-0.091596 	0 8.55659 	-0.0686962 	0 8.68498 	-0.0457957 	0 8.81385 	-0.0228949 	0 8.94315 	0 	0
9.72339 	0.381311 	0 9.5415 	0.55524 	0 9.39671 	0.663649 	0 9.26204 	0.75427 	0 9.21831 	0.780383 	0 8.95344 	1.27614 	0 8.70578 	1.91036 	0 8.48174 	2.72183 	0 8.46725 	2.67122 	0 8.47253 	2.45985 	0 8.50118 	2.35312 	0 8.525 	2.24428 	0 8.51223 	2.16308 	0 8.42489 	2.14735 	0 8.30216 	2.12556 	0 8.3012 	1.98207 	0 8.28717 	1.83795 	0 8.21185 	1.72566 	0 8.03504 	1.67504 	0 7.8631 	1.62572 	0 7.68327 	1.56755 	0 7.50181 	1.5087 	0 7.42797 	1.45834 	0 7.36151 	1.40765 	0 7.27867 	1.34664 	0 7.22252 	1.32369 	0 7.16618 	1.30064 	0 7.10964 	1.27748 	0 7.07935 	1.25435 	0 7.05298 	1.23116 	0 6.97401 	1.13834 	0 6.88849 	1.05222 	0 6.7989 	0.980289 	0 6.71198 	0.932047 	0 6.62286 	0.883626 	0 6.55094 	0.833736 	0 6.49232 	0.787545 	0 6.44247 	0.743811 	0 6.38869 	0.699045 	0 6.31697 	0.642276 	0 6.31479 	0.640172 	0 6.31322 	0.63834 	0 6.31172 	0.636546 	0 6.31022 	0.63475 	0 6.30867 	0.632903 	0 6.2713 	0.597054 	0 6.23149 	0.560877 	0 6.1892 	0.524368 	0 6.14438 	0.487521 	0 6.1094 	0.456339 	0 6.07597 	0.421074 	0 6.04564 	0.391119 	0 6.01692 	0.364694 	0 5.99431 	0.339768 	0 5.97301 	0.315392 	0 5.95229 	0.289282 	0 5.92953 	0.262962 	0 5.91326 	0.241927 	0 5.90313 	0.222959 	0 5.89151 	0.203929 	0 5.87883 	0.183891 	0 5.86461 	0.163754 	0 5.85585 	0.144225 	0 5.85289 	0.127882 	0 5.84866 	0.111513 	0 5.84239 	0.0949145 	0 5.83488 	0.0782742 	0 5.83273 	0.0596159 	0 5.83555 	0.0438003 	0 5.83718 	0.0279848 	0 5.83629 	0.012732 	0 5.83443 	-0.00260174 	0 5.83821 	-0.0216344 	0 5.84621 	-0.0390583 	0 5.85305 	-0.0564231 	0 5.85733 	-0.0724341 	0 5.8605 	-0.0884197 	0 5.86977 	-0.109753 	0 5.88312 	-0.131198 	0 5.89499 	-0.152573 	0 5.90473 	-0.171868 	0 5.9132 	-0.191095 	0 5.92742 	-0.216506 	0 5.94616 	-0.245343 	0 5.96303 	-0.274041 	0 5.97883 	-0.30018 	0 5.99299 	-0.326171 	0 6.0119 	-0.357756 	0 6.03583 	-0.398765 	0 6.05727 	-0.439533 	0 6.07943 	-0.47787 	0 6.10138 	-0.51826 	0 6.1265 	-0.564758 	0 6.15088 	-0.61689 	0 6.17481 	-0.676498 	0 6.20187 	-0.735109 	0 6.233 	-0.808269 	0 6.26026 	-0.880898 	0 6.28371 	-0.952994 	0 6.30362 	-1.02586 	0 6.30399 	-1.02715 	0 6.3044 	-1.02875 	0 6.30482 	-1.03039 	0 6.30523 	-1.03202 	0 6.30563 	-1.03364 	0 6.32847 	-1.12906 	0 6.34621 	-1.22246 	0 6.359 	-1.31385 	0 6.36926 	-1.41092 	0 6.38204 	-1.53299 	0 6.39958 	-1.65843 	0 6.41089 	-1.78179 	0 6.39903 	-1.92346 	2.56392e-20 6.36176 	-2.07217 	5.25051e-20 6.31157 	-2.22654 	8.00037e-20 6.30298 	-2.27886 	1.97212e-20 6.29024 	-2.32792 	1.60405e-21 6.27318 	-2.37356 	2.8082e-20 6.25551 	-2.41892 	5.52312e-20 6.24064 	-2.4556 	7.78638e-20 6.21453 	-2.54934 	1.76101e-19 6.18654 	-2.64255 	2.78348e-19 6.15669 	-2.7352 	3.8458e-19 6.11135 	-2.81457 	2.69499e-19 6.05598 	-2.89312 	6.14636e-20 5.97609 	-3.01254 	4.81788e-20 5.89118 	-3.12942 	3.54121e-20 5.79445 	-3.22712 	7.70788e-21 5.69333 	-3.3229 	-1.89952e-20 5.61252 	-3.39471 	-3.86547e-20 5.60466 	-3.40268 	-3.84719e-20 5.59678 	-3.41064 	-3.82781e-20 5.58884 	-3.41804 	-3.92717e-20 5.58079 	-3.424 	-4.34079e-20 5.57264 	-3.43002 	-4.75779e-20 5.45297 	-3.52613 	-2.93011e-20 5.32799 	-3.6203 	-1.04499e-20 5.20172 	-3.69744 	-7.61882e-22 5.07563 	-3.75616 	-1.25687e-21 4.92587 	-3.82215 	-9.39174e-22 4.92462 	-3.82273 	-5.75384e-22 4.92336 	-3.82331 	-2.11575e-22 4.92217 	-3.82378 	2.06541e-22 4.92105 	-3.82411 	7.00118e-22 4.91993 	-3.82443 	1.19255e-21 4.79417 	-3.87452 	7.01865e-22 4.6641 	-3.92242 	2.06985e-21 4.53734 	-3.95848 	3.81503e-21 4.41943 	-3.9758 	5.95561e-21 4.32397 	-3.98832 	7.83857e-21 4.29519 	-3.99561 	1.27382e-20 4.26621 	-4.00284 	1.76722e-20 4.24221 	-4.00452 	8.79113e-21 4.21834 	-4.00587 	-7.68868e-22 4.19345 	-4.00722 	-1.06639e-20 4.11824 	-4.01486 	-6.42301e-20 4.04181 	-4.02197 	-1.17411e-19 3.96431 	-4.02836 	-1.6859e-19 3.89882 	-4.02292 	-1.02885e-19 3.83893 	-4.01763 	-4.31669e-20 3.76255 	-4.01993 	3.44428e-21 3.6863 	-4.01939 	4.06915e-20 3.61552 	-4.00774 	3.30122e-20 3.54369 	-3.99563 	2.55977e-20 3.46303 	-3.9817 	1.76954e-20 3.45844 	-3.98114 	1.85573e-20 3.45385 	-3.98058 	1.94195e-20 3.44925 	-3.98002 	2.0282e-20 3.44492 	-3.97904 	2.10059e-20 3.44071 	-3.97791 	2.16719e-20 3.37279 	-3.9667 	1.39955e-20 3.30249 	-3.95282 	7.27261e-21 3.23098 	-3.93824 	5.44318e-22 3.15908 	-3.91122 	6.33246e-21 3.09137 	-3.88478 	1.25263e-20 3.04976 	-3.87512 	3.46555e-20 3.00786 	-3.86408 	5.02322e-20 2.96673 	-3.84564 	2.33073e-20 2.9252 	-3.82697 	-3.56112e-21 2.88052 	-3.80684 	-3.2132e-20 2.86174 	-3.80017 	-3.84556e-20 2.84288 	-3.79344 	-4.47817e-20 2.82393 	-3.78665 	-5.11102e-20 2.80507 	-3.7774 	-5.75268e-20 2.7865 	-3.76768 	-6.38549e-20 2.73291 	-3.74698 	-1.07682e-19 2.67848 	-3.72578 	-1.51632e-19 2.62352 	-3.69561 	-1.46461e-19 2.56888 	-3.65861 	-8.8298e-20 2.51617 	-3.62288 	-3.27043e-20 2.49922 	-3.61413 	1.99527e-21 2.48224 	-3.60515 	3.48522e-20 2.46634 	-3.59296 	2.96793e-20 2.45038 	-3.58073 	2.45426e-20 2.43391 	-3.56812 	1.93053e-20 2.40313 	-3.54921 	5.64906e-20 2.3721 	-3.5301 	9.35935e-20 2.3408 	-3.51079 	1.30612e-19 2.31055 	-3.48649 	1.03852e-19 2.28092 	-3.46222 	7.25653e-20 2.24337 	-3.43664 	4.23962e-20 2.20535 	-3.41072 	1.21935e-20 2.17019 	-3.37785 	-3.34025e-21 2.13474 	-3.34469 	-1.87343e-20 2.09679 	-3.30927 	-3.50915e-20 2.09347 	-3.30675 	-3.29617e-20 2.09014 	-3.30423 	-3.08342e-20 2.08681 	-3.3017 	-2.8709e-20 2.08368 	-3.29869 	-3.49024e-20 2.08055 	-3.29566 	-4.14547e-20 2.04368 	-3.2635 	-1.60645e-19 2.00762 	-3.22949 	-2.52142e-19 1.97211 	-3.19387 	-3.00454e-19 1.93952 	-3.15329 	-1.93799e-19 1.90742 	-3.11338 	-8.92308e-20 1.8981 	-3.10315 	-7.73642e-20 1.88875 	-3.09289 	-6.54922e-20 1.8808 	-3.08139 	-5.45122e-20 1.87314 	-3.06962 	-4.37203e-20 1.86541 	-3.05774 	-3.28288e-20 1.84388 	-3.0333 	-8.95944e-21 1.82223 	-3.00875 	1.49318e-20 1.80097 	-2.98359 	3.22852e-20 1.78225 	-2.95564 	1.5151e-20 1.76367 	-2.92792 	-1.81291e-21 1.74918 	-2.90793 	-1.8214e-20 1.73465 	-2.88791 	-3.45981e-20 1.72248 	-2.86646 	-1.39285e-20 1.71124 	-2.84447 	2.0916e-20 1.69998 	-2.82239 	5.59598e-20 1.68844 	-2.80661 	2.38705e-20 1.67687 	-2.7908 	-8.16651e-21 1.66585 	-2.77457 	-1.96935e-20 1.65639 	-2.75724 	2.48873e-20 1.64695 	-2.73995 	6.93357e-20 1.63232 	-2.71413 	2.16755e-19 1.6177 	-2.68833 	3.64134e-19 1.60571 	-2.66163 	3.19292e-19 1.59552 	-2.63441 	1.47558e-19 1.58557 	-2.60756 	-2.31087e-20 1.57878 	-2.59615 	-4.79838e-20 1.57198 	-2.58474 	-7.28612e-20 1.56584 	-2.57304 	-7.60951e-20 1.56069 	-2.56091 	-4.72216e-20 1.55555 	-2.54879 	-1.83397e-20 1.54428 	-2.52203 	-2.01342e-20 1.53312 	-2.49537 	-2.19708e-20 1.52418 	-2.46851 	-1.34266e-20 1.51787 	-2.44146 	7.22393e-21 1.51198 	-2.4154 	2.72275e-20 1.50637 	-2.40337 	3.71964e-20 1.50077 	-2.39136 	4.71625e-20 1.49622 	-2.37915 	5.08219e-20 1.49249 	-2.36678 	4.95663e-20 1.48879 	-2.35439 	4.82917e-20 1.48254 	-2.3319 	2.93109e-20 1.47645 	-2.30954 	1.02986e-20 1.47168 	-2.2874 	-2.41723e-21 1.46987 	-2.2656 	-1.29808e-22 1.46839 	-2.24492 	2.05829e-21 1.46233 	-2.22727 	6.60403e-20 1.45634 	-2.20968 	1.30185e-19 1.4525 	-2.19216 	1.09812e-19 1.44951 	-2.17473 	5.97622e-20 1.4466 	-2.15718 	9.13102e-21 1.44489 	-2.14364 	-3.21363e-20 1.44328 	-2.13018 	-7.33364e-20 1.4421 	-2.117 	-1.04289e-19 1.44389 	-2.1055 	-4.73748e-20 1.44574 	-2.09452 	7.72206e-21 1.43912 	-2.06624 	4.69189e-21 1.43276 	-2.03819 	1.64622e-21 1.43239 	-2.01329 	-2.28036e-20 1.43283 	-1.98896 	-4.90308e-20 1.43369 	-1.96416 	-7.62558e-20 1.43368 	-1.96267 	-7.66665e-20 1.43367 	-1.96119 	-7.70778e-20 1.43369 	-1.95973 	-7.74822e-20 1.434 	-1.95849 	-7.78e-20 1.43431 	-1.95725 	-7.81171e-20 1.43081 	-1.92916 	-2.75596e-19 1.4291 	-1.90206 	-4.20374e-19 1.429 	-1.87617 	-4.73588e-19 1.43355 	-1.85372 	-1.99059e-19 1.43824 	-1.83351 	5.54302e-20 1.43678 	-1.82269 	1.01325e-19 1.43538 	-1.81191 	1.47337e-19 1.43604 	-1.80258 	1.24402e-19 1.43679 	-1.79331 	1.00721e-19 1.43762 	-1.78391 	7.66117e-20 1.43881 	-1.77043 	6.42572e-20 1.44014 	-1.75708 	5.19438e-20 1.44164 	-1.74386 	3.96724e-20 1.44528 	-1.73234 	4.28426e-20 1.44894 	-1.72157 	4.6142e-20 1.44877 	-1.69886 	2.23359e-20 1.44913 	-1.67658 	1.54312e-21 1.45283 	-1.65683 	2.5667e-20 1.4569 	-1.63739 	4.98553e-20 1.46163 	-1.61711 	7.55693e-20 1.46169 	-1.61685 	7.56613e-20 1.46176 	-1.61659 	7.57534e-20 1.46183 	-1.61633 	7.58455e-20 1.46192 	-1.6161 	7.59392e-20 1.46202 	-1.61587 	7.60332e-20 1.46516 	-1.59577 	1.41175e-19 1.46888 	-1.57606 	2.02168e-19 1.47301 	-1.55665 	2.62969e-19 1.47969 	-1.53962 	1.68285e-19 1.48646 	-1.52444 	6.41221e-20 1.4881 	-1.5091 	1.20918e-19 1.49032 	-1.49427 	1.586e-19 1.49411 	-1.48085 	1.2575e-19 1.4981 	-1.46759 	9.3231e-20 1.50256 	-1.45373 	5.91631e-20 1.50386 	-1.44998 	4.57059e-20 1.50518 	-1.44625 	3.22859e-20 1.50652 	-1.44252 	1.89031e-20 1.50815 	-1.43916 	3.74426e-20 1.50987 	-1.436 	6.79432e-20 1.51315 	-1.41783 	1.69068e-19 1.51799 	-1.4005 	2.31218e-19 1.52383 	-1.38389 	2.65578e-19 1.53147 	-1.36935 	1.93999e-19 1.53894 	-1.35608 	1.26831e-19 1.54196 	-1.34224 	1.93562e-19 1.54563 	-1.32909 	2.17253e-19 1.55026 	-1.31703 	1.66948e-19 1.55511 	-1.30512 	1.16776e-19 1.56052 	-1.29251 	6.31143e-20 1.56186 	-1.28961 	5.46086e-20 1.56321 	-1.28672 	4.61037e-20 1.56458 	-1.28384 	3.75996e-20 1.56608 	-1.2812 	3.57309e-20 1.56767 	-1.27876 	3.89297e-20 1.5723 	-1.26288 	-3.52306e-20 1.57859 	-1.24793 	-8.35974e-20 1.58524 	-1.23321 	-1.31868e-19 1.59312 	-1.22037 	-7.88298e-20 1.60096 	-1.20872 	-1.60313e-20 1.60601 	-1.19299 	-6.15417e-20 1.61172 	-1.1781 	-8.35694e-20 1.61836 	-1.16459 	-6.20045e-20 1.6253 	-1.15128 	-4.0789e-20 1.63297 	-1.1393 	3.83638e-22 1.63385 	-1.13693 	1.01602e-20 1.63482 	-1.13473 	9.87729e-21 1.63585 	-1.13263 	2.61789e-21 1.63689 	-1.13054 	-4.63534e-21 1.63795 	-1.12842 	-1.20101e-20 1.64368 	-1.11734 	-6.22019e-20 1.64963 	-1.10639 	-1.12114e-19 1.6558 	-1.09558 	-1.61743e-19 1.66236 	-1.08551 	-1.58733e-19 1.66911 	-1.07686 	-7.99871e-20 1.67485 	-1.06295 	-1.12082e-19 1.68088 	-1.04922 	-1.44331e-19 1.68819 	-1.03697 	-1.54963e-19 1.69676 	-1.02615 	-1.44558e-19 1.7052 	-1.016 	-1.34501e-19 1.71132 	-1.00291 	-2.78843e-19 1.71799 	-0.991186 	-2.80081e-19 1.72501 	-0.980054 	-2.28584e-19 1.73228 	-0.969073 	-1.7757e-19 1.74074 	-0.956889 	-1.2072e-19 1.74081 	-0.956795 	-1.20492e-19 1.74088 	-0.956701 	-1.20264e-19 1.74095 	-0.956606 	-1.20036e-19 1.74102 	-0.956515 	-1.19881e-19 1.7411 	-0.956437 	-1.20027e-19 1.7484 	-0.94496 	-1.26065e-19 1.756 	-0.933656 	-1.3148e-19 1.76388 	-0.922506 	-1.36831e-19 1.77203 	-0.911886 	-1.33098e-19 1.78017 	-0.903147 	-9.69059e-20 1.78677 	-0.891113 	-1.24632e-19 1.79363 	-0.879224 	-1.52536e-19 1.80179 	-0.868696 	-1.42506e-19 1.81041 	-0.859621 	-9.91045e-20 1.81897 	-0.850972 	-5.7046e-20 1.82613 	-0.839197 	-1.61217e-19 1.83351 	-0.828258 	-2.06862e-19 1.84105 	-0.818476 	-1.66015e-19 1.84881 	-0.808819 	-1.25585e-19 1.85774 	-0.800251 	1.46791e-22 1.86206 	-0.793806 	2.05859e-22 1.86633 	-0.788338 	1.83763e-22 1.87067 	-0.782919 	1.60527e-22 1.87509 	-0.777538 	1.3713e-22 1.87996 	-0.771738 	1.11557e-22 1.88344 	-0.767767 	6.8726e-21 1.88696 	-0.763817 	1.35921e-20 1.89052 	-0.759888 	2.02702e-20 1.89412 	-0.755981 	2.69069e-20 1.89754 	-0.752882 	4.14122e-21 1.90478 	-0.742889 	-5.13261e-20 1.91293 	-0.733537 	-7.29771e-20 1.9213 	-0.724298 	-9.44465e-20 1.9297 	-0.715825 	-8.64001e-20 1.93778 	-0.708772 	-2.76583e-20 1.94512 	-0.698771 	-1.76072e-20 1.95268 	-0.688877 	-7.56806e-21 1.96115 	-0.680203 	-5.92965e-21 1.96943 	-0.673053 	-1.25352e-20 1.97773 	-0.666129 	-1.90466e-20 1.98549 	-0.656387 	5.74294e-20 1.99339 	-0.646905 	1.25982e-19 2.00082 	-0.639127 	1.12904e-19 2.00897 	-0.631879 	6.57908e-20 2.01745 	-0.625089 	1.12922e-22 2.02559 	-0.615609 	4.75575e-23 2.03316 	-0.607771 	-1.76056e-20 2.04083 	-0.600205 	-3.74093e-20 2.04867 	-0.592718 	-5.71885e-20 2.05694 	-0.585743 	-7.32403e-20 2.06083 	-0.581588 	-9.58036e-20 2.06443 	-0.578051 	-9.77583e-20 2.06806 	-0.574531 	-9.97306e-20 2.07174 	-0.571028 	-1.0172e-19 2.07575 	-0.56726 	-1.03889e-19 2.07988 	-0.563502 	-1.10434e-19 2.08405 	-0.559763 	-1.16964e-19 2.08827 	-0.556043 	-1.23479e-19 2.09254 	-0.552343 	-1.29979e-19 2.09639 	-0.549365 	-1.07921e-19 2.10386 	-0.54173 	-8.5851e-20 2.11177 	-0.534557 	-5.6662e-20 2.11984 	-0.527453 	-2.75117e-20 2.12802 	-0.520513 	1.07562e-22 2.13506 	-0.515442 	1.78528e-22 2.14253 	-0.507676 	6.75825e-20 2.1504 	-0.500407 	1.05412e-19 2.1586 	-0.493505 	1.22351e-19 2.16599 	-0.487918 	7.91475e-20 2.17301 	-0.48299 	9.67424e-21 2.18069 	-0.475472 	-6.03029e-20 2.18856 	-0.468017 	-1.30296e-19 2.19633 	-0.461683 	-1.35171e-19 2.20324 	-0.456815 	-6.73524e-20 2.21021 	-0.452029 	-5.02126e-23 2.21807 	-0.444759 	-1.75513e-23 2.22612 	-0.437547 	1.49374e-23 2.23292 	-0.431919 	0 2.23973 	-0.427204 	0 2.24662 	-0.422561 	0 2.25463 	-0.415536 	0 2.26212 	-0.409242 	0 2.26872 	-0.404021 	0 2.27542 	-0.39907 	-5.6946e-21 2.28219 	-0.394569 	-2.07929e-20 2.29031 	-0.387789 	-1.88673e-21 2.29695 	-0.382554 	-8.51683e-21 2.30352 	-0.377521 	-1.79682e-20 2.31022 	-0.372524 	-2.74086e-20 2.31687 	-0.368033 	-6.03452e-20 2.32436 	-0.362098 	-3.26314e-20 2.33077 	-0.357219 	-3.43733e-20 2.3373 	-0.352372 	-3.60873e-20 2.34395 	-0.347558 	-3.77736e-20 2.35062 	-0.342918 	-4.45889e-20 2.35368 	-0.340591 	-4.01079e-20 2.35638 	-0.338561 	-4.07937e-20 2.35911 	-0.336536 	-4.14745e-20 2.36186 	-0.334518 	-4.21503e-20 2.36485 	-0.332347 	-4.28736e-20 2.36851 	-0.329733 	-4.20024e-20 2.37221 	-0.327128 	-4.11395e-20 2.37595 	-0.324532 	-4.02849e-20 2.37972 	-0.321945 	-3.94386e-20 2.38301 	-0.319763 	-4.07387e-20 2.38935 	-0.315042 	-6.0186e-20 2.39564 	-0.310534 	-6.46052e-20 2.40205 	-0.306053 	-6.89484e-20 2.40857 	-0.301599 	-7.32159e-20 2.41374 	-0.298205 	-3.72788e-20 2.42031 	-0.293384 	-8.38076e-20 2.4265 	-0.289055 	-9.5847e-20 2.43279 	-0.284751 	-1.07828e-19 2.43918 	-0.280471 	-1.19752e-19 2.4433 	-0.277793 	-6.81183e-20 2.45007 	-0.27301 	-1.18551e-19 2.45623 	-0.268774 	-1.27618e-19 2.46238 	-0.264644 	-1.30021e-19 2.46784 	-0.261031 	-1.17587e-19 2.47169 	-0.258492 	-7.39004e-20 2.47843 	-0.253919 	-1.16494e-19 2.48482 	-0.249645 	-1.35635e-19 2.49082 	-0.245686 	-1.29928e-19 2.49528 	-0.242695 	-9.48925e-20 2.49888 	-0.240264 	-4.32327e-20 2.50558 	-0.235896 	4.32152e-20 2.51224 	-0.231625 	1.18051e-19 2.51807 	-0.227836 	1.23373e-19 2.52155 	-0.225396 	5.17826e-20 2.5249 	-0.223071 	-2.53839e-20 2.53154 	-0.218904 	-1.62874e-20 2.5383 	-0.214755 	-7.20082e-21 2.54359 	-0.211328 	8.67235e-21 2.54663 	-0.209093 	2.59774e-20 2.54972 	-0.20687 	4.32586e-20 2.5563 	-0.202901 	-4.33707e-20 2.56298 	-0.198947 	-1.30012e-19 2.56777 	-0.195875 	-1.38905e-19 2.57054 	-0.193743 	-6.87063e-20 2.57336 	-0.191621 	1.39836e-21 2.57986 	-0.187844 	2.28205e-21 2.58645 	-0.184082 	3.14528e-21 2.59077 	-0.181338 	-1.33752e-20 2.59328 	-0.179306 	-4.7182e-20 2.59584 	-0.177283 	-8.09654e-20 2.60224 	-0.173695 	-4.55047e-20 2.60873 	-0.170119 	-1.00596e-20 2.61263 	-0.167676 	-8.56208e-21 2.61487 	-0.165742 	-2.5961e-20 2.61716 	-0.163816 	-4.33451e-20 2.62345 	-0.160411 	-2.60181e-20 2.6295 	-0.157151 	-1.0796e-20 2.63307 	-0.154914 	-1.15155e-20 2.63532 	-0.153009 	-2.60843e-20 2.63735 	-0.151177 	-4.34253e-20 2.64352 	-0.147951 	-1.65039e-19 2.64889 	-0.145065 	-2.48359e-19 2.6523 	-0.142948 	-2.43828e-19 2.65465 	-0.141068 	-1.64885e-19 2.65641 	-0.139328 	-4.33878e-20 2.66246 	-0.136275 	-2.59948e-20 2.66719 	-0.133724 	-8.62466e-21 2.67043 	-0.131722 	8.71988e-21 2.67288 	-0.129881 	2.22265e-20 2.67438 	-0.12823 	3.11653e-20 2.6803 	-0.125345 	9.22735e-20 2.68441 	-0.123091 	1.13595e-19 2.68749 	-0.121201 	1.11981e-19 2.69004 	-0.119409 	9.30301e-20 2.69128 	-0.117845 	3.25326e-20 2.69707 	-0.115124 	2.40738e-20 2.70059 	-0.113132 	1.56346e-20 2.7035 	-0.111351 	7.19765e-21 2.70616 	-0.109616 	0 2.70714 	-0.108137 	0 2.7128 	-0.105573 	0 2.71576 	-0.103815 	1.62735e-20 2.7185 	-0.102138 	3.41e-20 2.72126 	-0.100468 	5.19174e-20 2.722 	-0.0990703 	6.9656e-20 2.72742 	-0.0966875 	1.87497e-19 2.72996 	-0.0951075 	1.85015e-19 2.73253 	-0.0935306 	1.82582e-19 2.73516 	-0.0919567 	1.80197e-19 2.73589 	-0.0906116 	7.1673e-20 2.74083 	-0.0884601 	5.46362e-20 2.7432 	-0.0869772 	3.76476e-20 2.74562 	-0.0854969 	2.06511e-20 2.74808 	-0.0840193 	3.64668e-21 2.74883 	-0.0827277 	1.33706e-20 2.75332 	-0.0807841 	-6.25803e-24 2.75555 	-0.0793945 	-3.18019e-23 2.75781 	-0.0780071 	-5.73358e-23 2.76011 	-0.0766221 	-8.28599e-23 2.76087 	-0.0753875 	5.75651e-21 2.76494 	-0.0736306 	-4.58032e-20 2.76701 	-0.0723304 	-4.45524e-20 2.76913 	-0.0710323 	-4.33282e-20 2.77127 	-0.069736 	-4.21306e-20 2.77204 	-0.0685609 	-5.03825e-21 2.77572 	-0.0669718 	8.74227e-23 2.77765 	-0.0657574 	6.22827e-23 2.77961 	-0.0645446 	3.71333e-23 2.78161 	-0.0633334 	1.19746e-23 2.78238 	-0.0622194 	0 2.7857 	-0.0607811 	1.29149e-20 2.78749 	-0.0596485 	3.92399e-20 2.78931 	-0.0585173 	6.55565e-20 2.79116 	-0.0573876 	9.18646e-20 2.79193 	-0.0563354 	1.10336e-19 2.79492 	-0.0550326 	1.67721e-19 2.79657 	-0.0539782 	1.66687e-19 2.79825 	-0.052925 	1.6568e-19 2.79997 	-0.0518731 	1.64699e-19 2.80072 	-0.0508827 	1.06268e-19 2.8034 	-0.0497019 	8.86929e-20 2.80493 	-0.048722 	5.42298e-20 2.80648 	-0.0477431 	1.97615e-20 2.80806 	-0.0467653 	-1.47121e-20 2.8088 	-0.0458362 	-4.62126e-20 2.8112 	-0.0447653 	-8.31547e-20 2.8126 	-0.0438563 	-8.19954e-20 2.81403 	-0.0429482 	-8.08689e-20 2.81548 	-0.0420409 	-7.9775e-20 2.8162 	-0.0411721 	-3.80586e-20 2.81835 	-0.0402002 	-4.5637e-20 2.81963 	-0.0393586 	-2.78306e-20 2.82093 	-0.0385177 	-1.00415e-20 2.82226 	-0.0376775 	7.73027e-21 2.82295 	-0.0368677 	4.3131e-20 2.82487 	-0.0359852 	5.1795e-20 2.82604 	-0.0352074 	6.92648e-20 2.82723 	-0.0344302 	8.67267e-20 2.82845 	-0.0336536 	1.04181e-19 2.8291 	-0.0329011 	1.23535e-19 2.83081 	-0.0320995 	1.41221e-19 2.83188 	-0.0313821 	1.32019e-19 2.83296 	-0.0306653 	1.22837e-19 2.83407 	-0.029949 	1.13676e-19 2.83467 	-0.0292517 	8.26379e-20 2.83621 	-0.0285233 	5.85488e-20 2.83717 	-0.0278631 	3.27847e-20 2.83816 	-0.0272033 	7.01879e-21 2.83916 	-0.026544 	-1.87489e-20 2.83971 	-0.0258998 	-4.15157e-20 2.84109 	-0.025238 	-4.91251e-20 2.84196 	-0.0246316 	-3.1369e-20 2.84284 	-0.0240257 	-1.36382e-20 2.84375 	-0.02342 	4.06733e-21 2.84425 	-0.0228266 	4.72146e-20 2.84548 	-0.0222254 	8.98022e-20 2.84627 	-0.0216698 	9.75275e-20 2.84706 	-0.0211145 	1.05295e-19 2.84788 	-0.0205595 	1.13104e-19 2.84832 	-0.0200145 	8.78022e-20 2.84943 	-0.0194683 	7.31082e-20 2.85013 	-0.0189605 	6.45565e-20 2.85084 	-0.0184528 	5.60007e-20 2.85157 	-0.0179454 	4.7441e-20 2.85195 	-0.0174463 	3.88823e-20 2.85296 	-0.0169506 	2.1985e-20 2.85358 	-0.0164874 	2.23157e-20 2.85422 	-0.0160245 	2.26245e-20 2.85487 	-0.0155617 	2.29113e-20 2.85518 	-0.0151061 	4.19184e-20 