# vtk DataFile Version 2.0
track0
ASCII
DATASET POLYDATA
POINTS 12278 float
-0.0205 0.001 1e-05
-0.02052 0.000999216 1e-05
-0.02054 0.000998592 1e-05
-0.02056 0.000998126 1e-05
-0.02058 0.000997818 1e-05
-0.0206 0.000997665 1e-05
-0.0205 0.00367778 1e-05
-0.02052 0.00367703 1e-05
-0.02054 0.00367643 1e-05
-0.02056 0.00367599 1e-05
-0.02058 0.00367569 1e-05
-0.0206 0.00367554 1e-05
-0.0205 0.00635556 1e-05
-0.02052 0.00635527 1e-05
-0.02054 0.00635505 1e-05
-0.02056 0.00635488 1e-05
-0.02058 0.00635476 1e-05
-0.0206 0.00635471 1e-05
-0.0205 0.00903333 1e-05
-0.02052 0.00903311 1e-05
-0.02054 0.00903293 1e-05
-0.02056 0.0090328 1e-05
-0.02058 0.00903271 1e-05
-0.0206 0.00903266 1e-05
-0.0205 0.0117111 1e-05
-0.02052 0.0117111 1e-05
-0.02054 0.011711 1e-05
-0.02056 0.011711 1e-05
-0.02058 0.011711 1e-05
-0.0206 0.011711 1e-05
-0.0205 0.0143889 1e-05
-0.02052 0.014389 1e-05
-0.02054 0.014389 1e-05
-0.02056 0.0143891 1e-05
-0.02058 0.0143891 1e-05
-0.0206 0.0143891 1e-05
-0.0205 0.0170667 1e-05
-0.02052 0.017067 1e-05
-0.02054 0.0170672 1e-05
-0.02056 0.0170674 1e-05
-0.02058 0.0170675 1e-05
-0.0206 0.0170676 1e-05
-0.0205 0.0197444 1e-05
-0.02052 0.019745 1e-05
-0.02054 0.0197454 1e-05
-0.02056 0.0197457 1e-05
-0.02058 0.0197459 1e-05
-0.0206 0.019746 1e-05
-0.0205 0.0224222 1e-05
-0.02052 0.022423 1e-05
-0.02054 0.0224236 1e-05
-0.02056 0.0224241 1e-05
-0.02058 0.0224244 1e-05
-0.0206 0.0224245 1e-05
-0.0205 0.0251 1e-05
-0.02052 0.0251003 1e-05
-0.02054 0.0251005 1e-05
-0.02056 0.0251007 1e-05
-0.02058 0.0251008 1e-05
-0.0206 0.0251008 1e-05
-0.0205 0.001 1e-05
-0.0203632 0.00100536 1e-05
-0.0202266 0.00101331 1e-05
-0.0200901 0.00102296 1e-05
-0.0200427 0.00102682 1e-05
-0.0198376 0.00104418 1e-05
-0.0196338 0.00107322 1e-05
-0.0194327 0.00111734 1e-05
-0.0192368 0.00118024 1e-05
-0.0190172 0.00124951 1e-05
-0.0189002 0.00128348 1e-05
-0.0187827 0.00131598 1e-05
-0.0186649 0.001347 1e-05
-0.0185469 0.001377 1e-05
-0.0183807 0.00141936 1e-05
-0.0182041 0.00146458 1e-05
-0.0180267 0.00150692 1e-05
-0.0178487 0.0015464 1e-05
-0.0176703 0.00158389 1e-05
-0.0174976 0.00161991 1e-05
-0.0172846 0.00166394 1e-05
-0.0170715 0.00170741 1e-05
-0.0168583 0.00175029 1e-05
-0.0166449 0.00179219 1e-05
-0.0163945 0.00184007 1e-05
-0.0163234 0.00185324 1e-05
-0.0162522 0.00186629 1e-05
-0.016181 0.00187921 1e-05
-0.0161097 0.00189201 1e-05
-0.0160387 0.0019046 1e-05
-0.0157586 0.0019535 1e-05
-0.0154779 0.00199931 1e-05
-0.0151968 0.00204225 1e-05
-0.0149154 0.00208283 1e-05
-0.0146381 0.00212134 1e-05
-0.0143838 0.00215527 1e-05
-0.0141293 0.00218766 1e-05
-0.0138747 0.00221855 1e-05
-0.0136198 0.00224797 1e-05
-0.0132934 0.00228369 1e-05
-0.0132791 0.00228515 1e-05
-0.0132648 0.0022866 1e-05
-0.0132504 0.00228805 1e-05
-0.0132361 0.0022895 1e-05
-0.0132214 0.00229098 1e-05
-0.0129776 0.00231543 1e-05
-0.0127337 0.00233865 1e-05
-0.0124897 0.00236061 1e-05
-0.0122456 0.0023813 1e-05
-0.0120025 0.00240058 1e-05
-0.0117547 0.00241909 1e-05
-0.0115067 0.00243627 1e-05
-0.0112587 0.00245231 1e-05
-0.0110106 0.00246734 1e-05
-0.0107632 0.00248136 1e-05
-0.0105252 0.00249391 1e-05
-0.0102872 0.00250547 1e-05
-0.0100491 0.00251602 1e-05
-0.00981105 0.00252575 1e-05
-0.00957337 0.00253471 1e-05
-0.00934491 0.00254261 1e-05
-0.00911643 0.00254974 1e-05
-0.00888792 0.00255611 1e-05
-0.0086594 0.00256172 1e-05
-0.00843108 0.00256669 1e-05
-0.00821175 0.00257085 1e-05
-0.00799241 0.00257439 1e-05
-0.00777306 0.00257731 1e-05
-0.0075537 0.00257953 1e-05
-0.00733443 0.00258115 1e-05
-0.00712387 0.00258213 1e-05
-0.0069133 0.00258256 1e-05
-0.00670273 0.00258243 1e-05
-0.00649216 0.00258162 1e-05
-0.0062816 0.00258018 1e-05
-0.00607944 0.0025782 1e-05
-0.0058773 0.00257566 1e-05
-0.00567516 0.00257257 1e-05
-0.00547303 0.00256875 1e-05
-0.00527083 0.0025642 1e-05
-0.00507675 0.00255913 1e-05
-0.00488269 0.00255344 1e-05
-0.00468865 0.00254712 1e-05
-0.00449464 0.00253998 1e-05
-0.00430044 0.00253191 1e-05
-0.00411412 0.0025233 1e-05
-0.00392784 0.00251389 1e-05
-0.00374159 0.0025037 1e-05
-0.0035554 0.00249256 1e-05
-0.00336883 0.00248017 1e-05
-0.00318995 0.00246713 1e-05
-0.00301115 0.00245301 1e-05
-0.00283245 0.00243776 1e-05
-0.00265386 0.00242122 1e-05
-0.00247443 0.00240315 1e-05
-0.0023027 0.00238427 1e-05
-0.00213114 0.00236385 1e-05
-0.00195982 0.00234155 1e-05
-0.00178875 0.0023174 1e-05
-0.00161577 0.00229107 1e-05
-0.00161566 0.00229105 1e-05
-0.00161554 0.00229103 1e-05
-0.00161543 0.00229101 1e-05
-0.00161532 0.002291 1e-05
-0.0016152 0.00229098 1e-05
-0.00145045 0.00226407 1e-05
-0.00128609 0.00223482 1e-05
-0.00112216 0.00220327 1e-05
-0.000958677 0.00216948 1e-05
-0.000791418 0.00213238 1e-05
-0.000633135 0.00209427 1e-05
-0.000475556 0.00205334 1e-05
-0.000318719 0.00200966 1e-05
-0.000162834 0.00196269 1e-05
0 0.00190953 1e-05
3.73499e-05 0.00189633 1e-05
7.45997e-05 0.00188285 1e-05
0.000111751 0.0018691 1e-05
0.000148805 0.00185508 1e-05
0.000179121 0.00184338 1e-05
0.000248974 0.00181594 1e-05
0.000318417 0.00178748 1e-05
0.000387434 0.00175801 1e-05
0.000456012 0.00172752 1e-05
0.000528387 0.00169415 1e-05
0.000634886 0.00164317 1e-05
0.000740278 0.00158994 1e-05
0.00084451 0.00153447 1e-05
0.00094762 0.00147695 1e-05
0.00101991 0.00143469 1e-05
0.00102811 0.00142973 1e-05
0.00103629 0.00142477 1e-05
0.00104447 0.00141978 1e-05
0.00105263 0.00141479 1e-05
0.00106088 0.00140972 1e-05
0.00116821 0.00134353 1e-05
0.00127404 0.00127497 1e-05
0.00137827 0.00120402 1e-05
0.00148099 0.00113089 1e-05
0.00159671 0.00104511 1e-05
0.00159687 0.00104498 1e-05
0.00159704 0.00104486 1e-05
0.0015972 0.00104473 1e-05
0.00159736 0.00104461 1e-05
0.00159752 0.00104448 1e-05
0.00169219 0.000970911 1e-05
0.00178545 0.000895572 1e-05
0.00187724 0.000818435 1e-05
0.00196761 0.000739643 1e-05
0.00203801 0.000676367 1e-05
0.00205807 0.000657878 1e-05
0.00207805 0.0006393 1e-05
0.00209795 0.000620633 1e-05
0.00211779 0.000601902 1e-05
0.00213833 0.000582388 1e-05
0.00219146 0.000531569 1e-05
0.0022441 0.000480234 1e-05
0.00229622 0.000428373 1e-05
0.00234781 0.000375982 1e-05
0.00239411 0.000328255 1e-05
0.00245195 0.000267794 1e-05
0.00250917 0.000206733 1e-05
0.00256575 0.000145089 1e-05
0.00262182 8.29789e-05 1e-05
0.00268334 1.36556e-05 1e-05
0.00268571 1.09245e-05 1e-05
0.00268809 8.19236e-06 1e-05
0.00269046 5.45921e-06 1e-05
0.00269284 2.72504e-06 1e-05
0.0026952 0 1e-05
0.0027591 -7.37368e-05 1e-05
0.00282237 -0.000148005 1e-05
0.00288501 -0.000222813 1e-05
0.00294699 -0.000298173 1e-05
0.00300406 -0.000368654 1e-05
0.00304977 -0.000425935 1e-05
0.00309516 -0.000483461 1e-05
0.00314025 -0.000541229 1e-05
0.00318509 -0.000599192 1e-05
0.00323259 -0.000661169 1e-05
0.00325063 -0.000684954 1e-05
0.00326863 -0.000708779 1e-05
0.00328657 -0.000732643 1e-05
0.00330446 -0.000756548 1e-05
0.003322 -0.00078009 1e-05
0.00339014 -0.000871877 1e-05
0.00345769 -0.000964107 1e-05
0.0035246 -0.00105679 1e-05
0.00359098 -0.00114986 1e-05
0.00365384 -0.00123896 1e-05
0.00368029 -0.00127685 1e-05
0.00370667 -0.00131479 1e-05
0.00373297 -0.00135279 1e-05
0.00375922 -0.00139082 1e-05
0.00378611 -0.00142989 1e-05
0.00383009 -0.00149401 1e-05
0.00387386 -0.00155827 1e-05
0.0039174 -0.00162268 1e-05
0.00396073 -0.00168724 1e-05
0.00400288 -0.00175044 1e-05
0.00407109 -0.00185327 1e-05
0.00413888 -0.00195638 1e-05
0.00420625 -0.00205977 1e-05
0.00427333 -0.00216334 1e-05
0.00434393 -0.00227302 1e-05
0.00434998 -0.00228248 1e-05
0.00435602 -0.00229194 1e-05
0.00436206 -0.0023014 1e-05
0.00436809 -0.00231086 1e-05
0.00437411 -0.0023203 1e-05
0.00445495 -0.00244725 1e-05
0.00453535 -0.00257449 1e-05
0.00461535 -0.00270197 1e-05
0.00469499 -0.00282968 1e-05
0.00477287 -0.00295498 1e-05
0.00479951 -0.002998 1e-05
0.00482613 -0.00304104 1e-05
0.00485272 -0.00308409 1e-05
0.00487931 -0.00312715 1e-05
0.00490609 -0.00317053 1e-05
0.00496672 -0.00326875 1e-05
0.00502721 -0.00336706 1e-05
0.00508754 -0.00346547 1e-05
0.00514774 -0.00356395 1e-05
0.00520739 -0.00366161 1e-05
0.00526043 -0.00374852 1e-05
0.00531344 -0.00383545 1e-05
0.00536641 -0.00392241 1e-05
0.0054194 -0.00400936 1e-05
0.00547262 -0.00409657 1e-05
0.00551559 -0.00416688 1e-05
0.00555853 -0.00423721 1e-05
0.00560144 -0.00430756 1e-05
0.00564432 -0.00437792 1e-05
0.00568714 -0.00444811 1e-05
0.00575843 -0.00456486 1e-05
0.00582975 -0.00468158 1e-05
0.00590113 -0.00479828 1e-05
0.00597264 -0.00491489 1e-05
0.00604356 -0.00503006 1e-05
0.00607981 -0.0050887 1e-05
0.00611607 -0.00514733 1e-05
0.00615233 -0.00520596 1e-05
0.00618862 -0.00526458 1e-05
0.00622502 -0.00532326 1e-05
0.0063038 -0.00545003 1e-05
0.00638277 -0.00557669 1e-05
0.00646194 -0.00570323 1e-05
0.00654138 -0.0058296 1e-05
0.00661893 -0.00595214 1e-05
0.00666282 -0.00602106 1e-05
0.00670677 -0.00608993 1e-05
0.00675076 -0.00615878 1e-05
0.00679484 -0.00622757 1e-05
0.00683931 -0.00629671 1e-05
0.0069112 -0.00640814 1e-05
0.00698335 -0.0065194 1e-05
0.00705575 -0.00663049 1e-05
0.00712845 -0.00674139 1e-05
0.00719878 -0.00684788 1e-05
0.00726945 -0.00695411 1e-05
0.00734035 -0.00706019 1e-05
0.00741147 -0.00716613 1e-05
0.0074829 -0.00727185 1e-05
0.00755586 -0.00737909 1e-05
0.00760131 -0.00744542 1e-05
0.0076469 -0.00751166 1e-05
0.00769261 -0.00757782 1e-05
0.00773845 -0.00764388 1e-05
0.00778313 -0.00770794 1e-05
0.00790091 -0.00787591 1e-05
0.00801946 -0.00804335 1e-05
0.00813878 -0.00821023 1e-05
0.0082591 -0.0083764 1e-05
0.00837203 -0.00853032 1e-05
0.0083797 -0.00854063 1e-05
0.00838738 -0.00855094 1e-05
0.00839506 -0.00856125 1e-05
0.00840274 -0.00857156 1e-05
0.00841044 -0.00858189 1e-05
0.00852146 -0.00873058 1e-05
0.00863329 -0.00887866 1e-05
0.00874597 -0.0090261 1e-05
0.00885952 -0.00917287 1e-05
0.00896551 -0.00930801 1e-05
0.00903008 -0.00938927 1e-05
0.00909491 -0.00947032 1e-05
0.00916 -0.00955116 1e-05
0.0092254 -0.00963176 1e-05
0.00929296 -0.00971438 1e-05
0.00934709 -0.00978005 1e-05
0.00940141 -0.00984555 1e-05
0.00945593 -0.00991089 1e-05
0.00951065 -0.00997606 1e-05
0.0095636 -0.0100387 1e-05
[...]
POINT_DATA 12278
 FIELD attributes 1
U 3 12278 float
9.72339 	0.381311 	0 9.77871 	0.305049 	0 9.83405 	0.228765 	0 9.8894 	0.152465 	0 9.94476 	0.0761532 	0 10 	0 	0
10.0671 	0.375483 	0 10.0537 	0.300387 	0 10.0403 	0.225271 	0 10.0268 	0.150141 	0 10.0134 	0.0750008 	0 10 	0 	0
10.0364 	0.141572 	0 10.0291 	0.113304 	0 10.0218 	0.085089 	0 10.0145 	0.0569263 	0 10.0071 	0.0288164 	0 10 	0 	0
10.0137 	0.111519 	0 10.011 	0.0892151 	0 10.0082 	0.0669109 	0 10.0055 	0.0446062 	0 10.0027 	0.0223012 	0 10 	0 	0
10.0097 	0.0196535 	0 10.0078 	0.0157228 	0 10.0058 	0.0117921 	0 10.0039 	0.00786139 	0 10.0019 	0.00393068 	0 10 	0 	0
10.0102 	-0.0372874 	0 10.0082 	-0.0298299 	0 10.0061 	-0.0223724 	0 10.0041 	-0.0149149 	0 10.002 	-0.00745739 	0 10 	0 	0
10.0174 	-0.148996 	0 10.0139 	-0.119197 	0 10.0105 	-0.0893967 	0 10.007 	-0.0595953 	0 10.0035 	-0.0297932 	0 10 	0 	0
10.0362 	-0.265901 	0 10.029 	-0.212721 	0 10.0217 	-0.159534 	0 10.0145 	-0.106342 	0 10.0072 	-0.053146 	0 10 	0 	0
10.0563 	-0.387167 	0 10.045 	-0.309734 	0 10.0338 	-0.23228 	0 10.0225 	-0.15481 	0 10.0112 	-0.0773281 	0 10 	0 	0
8.30133 	-0.114495 	0 8.4287 	-0.091596 	0 8.55659 	-0.0686962 	0 8.68498 	-0.0457957 	0 8.81385 	-0.0228949 	0 8.94315 	0 	0
9.72339 	0.381311 	0 9.5415 	0.555241 	0 9.39671 	0.663651 	0 9.26203 	0.754271 	0 9.2183 	0.780385 	0 8.95344 	1.27614 	0 8.70578 	1.91036 	0 8.48173 	2.72184 	0 8.46724 	2.67123 	0 8.47252 	2.45986 	0 8.50117 	2.35314 	0 8.52498 	2.2443 	0 8.51221 	2.16311 	0 8.42487 	2.14738 	0 8.30214 	2.12559 	0 8.30117 	1.9821 	0 8.28715 	1.83798 	0 8.21181 	1.72569 	0 8.035 	1.67507 	0 7.86306 	1.62575 	0 7.68323 	1.56759 	0 7.50177 	1.50875 	0 7.42793 	1.45839 	0 7.36148 	1.40771 	0 7.27865 	1.34671 	0 7.22249 	1.32376 	0 7.16614 	1.3007 	0 7.10958 	1.27753 	0 7.07928 	1.2544 	0 7.05291 	1.23121 	0 6.97394 	1.13838 	0 6.88841 	1.05226 	0 6.79883 	0.980329 	0 6.71191 	0.932083 	0 6.6228 	0.883658 	0 6.55089 	0.833775 	0 6.49228 	0.787588 	0 6.44246 	0.743856 	0 6.3887 	0.699091 	0 6.31694 	0.642266 	0 6.31477 	0.640172 	0 6.3132 	0.638347 	0 6.31172 	0.63656 	0 6.31022 	0.634772 	0 6.30868 	0.632933 	0 6.27132 	0.597063 	0 6.23151 	0.560864 	0 6.18922 	0.524333 	0 6.1444 	0.487464 	0 6.10943 	0.456253 	0 6.07602 	0.420971 	0 6.0457 	0.390996 	0 6.017 	0.364552 	0 5.99443 	0.339602 	0 5.97315 	0.315198 	0 5.95245 	0.289064 	0 5.92972 	0.262721 	0 5.91348 	0.24166 	0 5.90339 	0.222656 	0 5.89182 	0.203589 	0 5.87916 	0.183522 	0 5.86498 	0.163356 	0 5.85626 	0.143792 	0 5.85336 	0.127403 	0 5.84919 	0.110988 	0 5.84296 	0.094353 	0 5.83549 	0.0776768 	0 5.8334 	0.0589746 	0 5.8363 	0.0431009 	0 5.83799 	0.0272276 	0 5.83716 	0.0119301 	0 5.83534 	-0.00343667 	0 5.8392 	-0.0225378 	0 5.84731 	-0.0400292 	0 5.85424 	-0.0574663 	0 5.85859 	-0.0735332 	0 5.86184 	-0.089574 	0 5.8712 	-0.110962 	0 5.88466 	-0.1325 	0 5.89664 	-0.153966 	0 5.90649 	-0.173332 	0 5.91506 	-0.192629 	0 5.92938 	-0.218088 	0 5.94826 	-0.247044 	0 5.96525 	-0.275859 	0 5.98119 	-0.302091 	0 5.99549 	-0.328174 	0 6.01453 	-0.359788 	0 6.03863 	-0.400952 	0 6.06023 	-0.441872 	0 6.08257 	-0.480335 	0 6.10477 	-0.520956 	0 6.13007 	-0.567612 	0 6.15455 	-0.619686 	0 6.17868 	-0.679496 	0 6.20606 	-0.738487 	0 6.2374 	-0.811878 	0 6.26488 	-0.884733 	0 6.28852 	-0.957049 	0 6.30864 	-1.02976 	0 6.30865 	-1.02982 	0 6.30867 	-1.0299 	0 6.30869 	-1.02997 	0 6.30871 	-1.03005 	0 6.30873 	-1.03013 	0 6.33251 	-1.12729 	0 6.35105 	-1.22236 	0 6.36446 	-1.31535 	0 6.37521 	-1.41403 	0 6.38849 	-1.53821 	0 6.40629 	-1.66395 	0 6.41784 	-1.7876 	0 6.40572 	-1.93011 	2.62027e-20 6.36934 	-2.07907 	5.3715e-20 6.31919 	-2.23384 	8.12172e-20 6.31098 	-2.28431 	2.33494e-20 6.29879 	-2.33165 	5.79614e-21 6.28243 	-2.37569 	3.12333e-20 6.2655 	-2.41946 	5.72912e-20 6.25116 	-2.45516 	7.9175e-20 6.22477 	-2.551 	1.7893e-19 6.19643 	-2.64628 	2.82844e-19 6.16615 	-2.74098 	3.90892e-19 6.12001 	-2.82211 	2.74278e-19 6.06347 	-2.90243 	6.24766e-20 5.98351 	-3.02209 	4.92594e-20 5.89835 	-3.13878 	3.61774e-20 5.80148 	-3.23663 	8.56077e-21 5.70022 	-3.33253 	-1.80562e-20 5.62526 	-3.39913 	-3.62062e-20 5.61613 	-3.40842 	-3.59986e-20 5.60696 	-3.4177 	-3.57761e-20 5.59772 	-3.42633 	-3.6925e-20 5.58835 	-3.43327 	-4.1724e-20 5.57884 	-3.44029 	-4.65686e-20 5.45895 	-3.53649 	-2.83002e-20 5.33374 	-3.63074 	-9.459e-21 5.2077 	-3.7077 	1.20992e-22 5.08147 	-3.76658 	-1.97009e-22 4.93242 	-3.83192 	6.97373e-23 4.93218 	-3.83205 	3.99072e-23 4.93194 	-3.83219 	1.00767e-23 4.93172 	-3.83228 	1.76899e-23 4.93152 	-3.83235 	4.44038e-23 4.93131 	-3.83242 	7.11257e-23 4.80558 	-3.88177 	1.12443e-21 4.67577 	-3.92951 	2.48223e-21 4.54883 	-3.96602 	4.21029e-21 4.43119 	-3.98311 	6.33566e-21 4.33586 	-3.99548 	8.20656e-21 4.30554 	-4.00314 	1.33503e-20 4.27501 	-4.01072 	1.85319e-20 4.24972 	-4.01243 	9.21694e-21 4.22455 	-4.01379 	-8.27108e-22 4.19828 	-4.01515 	-1.12407e-20 4.12445 	-4.02246 	-6.36268e-20 4.04945 	-4.02924 	-1.15645e-19 3.97341 	-4.03535 	-1.65844e-19 3.90923 	-4.02982 	-1.01585e-19 3.8504 	-4.02444 	-4.30508e-20 3.77284 	-4.02659 	4.16397e-21 3.69539 	-4.02584 	4.19756e-20 3.62351 	-4.01373 	3.41788e-20 3.55056 	-4.00114 	2.66526e-20 3.46854 	-3.98666 	1.86266e-20 3.46519 	-3.98624 	1.92551e-20 3.46183 	-3.98582 	1.98838e-20 3.45847 	-3.98539 	2.05127e-20 3.45531 	-3.98467 	2.10405e-20 3.45223 	-3.98383 	2.15266e-20 3.3841 	-3.97181 	1.41237e-20 3.31391 	-3.95766 	7.41531e-21 3.24251 	-3.9428 	7.01577e-22 3.17072 	-3.91574 	6.17102e-21 3.10309 	-3.88897 	1.23545e-20 3.06101 	-3.87897 	3.47224e-20 3.01862 	-3.86757 	5.06193e-20 2.97703 	-3.84862 	2.33619e-20 2.93504 	-3.82943 	-3.83866e-21 2.88985 	-3.80874 	-3.27602e-20 2.87171 	-3.80218 	-3.88691e-20 2.85349 	-3.79557 	-4.49802e-20 2.83519 	-3.78891 	-5.10935e-20 2.81698 	-3.77984 	-5.72923e-20 2.79904 	-3.77032 	-6.34096e-20 2.74564 	-3.74926 	-1.07136e-19 2.69141 	-3.72771 	-1.50983e-19 2.63662 	-3.69707 	-1.46192e-19 2.5822 	-3.65969 	-8.81847e-20 2.52967 	-3.62358 	-3.27048e-20 2.51276 	-3.61466 	2.04975e-21 2.49579 	-3.60554 	3.52023e-20 2.47993 	-3.59315 	2.99506e-20 2.464 	-3.58072 	2.47339e-20 2.44758 	-3.56792 	1.94172e-20 2.41703 	-3.54883 	5.65431e-20 2.38623 	-3.52955 	9.35895e-20 2.35517 	-3.51007 	1.30554e-19 2.32517 	-3.48555 	1.03455e-19 2.29576 	-3.4611 	7.22961e-20 2.25883 	-3.43542 	4.24503e-20 2.22145 	-3.40941 	1.25722e-20 2.18689 	-3.37656 	-2.89197e-21 2.15209 	-3.34336 	-1.8095e-20 2.11497 	-3.30804 	-3.41973e-20 2.11125 	-3.30518 	-3.17695e-20 2.10753 	-3.30231 	-2.93446e-20 2.10381 	-3.29944 	-2.69224e-20 2.1003 	-3.29601 	-3.39858e-20 2.09681 	-3.29256 	-4.13465e-20 2.06009 	-3.26028 	-1.64654e-19 2.02436 	-3.22595 	-2.56644e-19 1.98931 	-3.18985 	-2.9966e-19 1.95708 	-3.14896 	-1.93322e-19 1.92532 	-3.10873 	-8.89863e-20 1.91671 	-3.09906 	-7.78987e-20 1.90809 	-3.08936 	-6.68067e-20 1.90076 	-3.07852 	-5.65386e-20 1.89372 	-3.06742 	-4.6461e-20 1.88663 	-3.05623 	-3.63077e-20 1.8647 	-3.03085 	-1.17647e-20 1.84266 	-3.00537 	1.27997e-20 1.82106 	-2.9792 	2.99798e-20 1.80203 	-2.95023 	1.21426e-20 1.78313 	-2.92148 	-5.53101e-21 1.76974 	-2.90252 	-2.11473e-20 1.75632 	-2.88354 	-3.67518e-20 1.74508 	-2.86325 	-1.81192e-20 1.73478 	-2.84245 	1.47093e-20 1.72448 	-2.82161 	4.76444e-20 1.71215 	-2.80442 	1.21382e-20 1.6998 	-2.7872 	-2.33177e-20 1.68809 	-2.76951 	-3.49397e-20 1.678 	-2.75066 	1.29474e-20 1.66796 	-2.73186 	6.0703e-20 1.65463 	-2.70766 	1.97469e-19 1.64133 	-2.68349 	3.34174e-19 1.63041 	-2.65854 	2.96353e-19 1.62125 	-2.63311 	1.33609e-19 1.61234 	-2.60808 	-2.78285e-20 1.60453 	-2.59471 	-5.73802e-20 1.59673 	-2.58136 	-8.69399e-20 1.58974 	-2.56766 	-8.97884e-20 1.58386 	-2.5535 	-5.62883e-20 1.578 	-2.53934 	-2.27616e-20 1.56801 	-2.51482 	-2.46228e-20 1.55813 	-2.4904 	-2.65238e-20 1.55019 	-2.46586 	-1.93272e-20 1.54475 	-2.44116 	-4.95064e-22 1.53968 	-2.41735 	1.77562e-20 1.53304 	-2.40287 	2.97284e-20 1.52642 	-2.38841 	4.1696e-20 1.52111 	-2.37372 	4.57282e-20 1.51676 	-2.3589 	4.41055e-20 1.51244 	-2.34403 	4.24528e-20 1.50719 	-2.32429 	2.55721e-20 1.50209 	-2.30467 	8.66582e-21 1.49805 	-2.28525 	-3.12937e-21 1.4967 	-2.2662 	-1.11718e-21 1.4956 	-2.24804 	8.15859e-22 1.48863 	-2.22753 	7.62367e-20 1.48177 	-2.20711 	1.51885e-19 1.47751 	-2.18686 	1.25764e-19 1.47417 	-2.16676 	6.77947e-20 1.47095 	-2.14648 	8.99905e-21 1.46974 	-2.13593 	-2.33806e-20 1.4686 	-2.12544 	-5.57167e-20 1.46771 	-2.11511 	-8.20499e-20 1.46924 	-2.10622 	-3.65082e-20 1.47081 	-2.09765 	7.88472e-21 1.46368 	-2.06743 	4.60774e-21 1.45685 	-2.0375 	1.31299e-21 1.45609 	-2.01093 	-2.34734e-20 1.45665 	-1.98522 	-5.1751e-20 1.45925 	-1.96225 	-7.48985e-20 1.45878 	-1.9603 	-6.85882e-20 1.45831 	-1.95835 	-6.23312e-20 1.45826 	-1.9566 	-6.70551e-20 1.45821 	-1.95485 	-7.17767e-20 1.45817 	-1.95311 	-7.65087e-20 1.45629 	-1.92817 	-2.09592e-19 1.45478 	-1.90354 	-3.41942e-19 1.45401 	-1.87948 	-4.46709e-19 1.45826 	-1.85925 	-1.91236e-19 1.46263 	-1.84088 	4.71098e-20 1.46048 	-1.82599 	1.11149e-19 1.45845 	-1.81119 	1.74979e-19 1.45937 	-1.79852 	1.42296e-19 1.46041 	-1.78595 	1.09714e-19 1.46162 	-1.77313 	7.63129e-20 1.46255 	-1.76355 	6.73777e-20 1.46355 	-1.75404 	5.84646e-20 1.46464 	-1.7446 	4.95737e-20 1.46726 	-1.73641 	5.16492e-20 1.46993 	-1.72864 	5.41671e-20 1.46941 	-1.70537 	2.94761e-20 1.46925 	-1.6824 	4.7233e-21 1.47217 	-1.66184 	2.02594e-20 1.47676 	-1.64237 	4.53463e-20 1.48271 	-1.62526 	6.85777e-20 1.48269 	-1.6212 	6.74628e-20 1.48277 	-1.61722 	6.7626e-20 1.48336 	-1.61361 	7.51607e-20 1.48396 	-1.61001 	8.26935e-20 1.48458 	-1.60638 	9.0314e-20 1.48729 	-1.59063 	1.39728e-19 1.49027 	-1.57507 	1.8902e-19 1.49351 	-1.55972 	2.38186e-19 1.49869 	-1.54621 	1.68539e-19 1.50411 	-1.53403 	8.22009e-20 1.50577 	-1.51454 	1.55513e-19 1.50826 	-1.49579 	2.03586e-19 1.51288 	-1.47898 	1.61759e-19 1.51785 	-1.46243 	1.20463e-19 1.52355 	-1.44495 	7.67059e-20 1.52357 	-1.44487 	7.64246e-20 1.5236 	-1.4448 	7.61433e-20 1.52363 	-1.44472 	7.58621e-20 1.52366 	-1.44465 	7.6236e-20 1.5237 	-1.44458 	7.68968e-20 1.5281 	-1.42755 	1.26729e-19 1.5329 	-1.4108 	1.74773e-19 1.53808 	-1.39431 	2.22427e-19 1.54485 	-1.3796 	1.84277e-19 1.55195 	-1.36668 	1.17149e-19 1.55529 	-1.34907 	2.03177e-19 1.5595 	-1.33236 	2.39411e-19 1.56515 	-1.31721 	1.74666e-19 1.57113 	-1.30231 	1.10136e-19 1.57748 	-1.28877 	3.78457e-20 1.57771 	-1.28778 	3.75966e-20 1.57797 	-1.28685 	3.67751e-20 1.57829 	-1.28597 	3.52316e-20 1.57861 	-1.2851 	3.36878e-20 1.57893 	-1.28422 	3.21351e-20 1.58415 	-1.27026 	-1.34108e-20 1.58968 	-1.2565 	-5.88774e-20 1.5955 	-1.24294 	-1.04262e-19 1.60221 	-1.23058 	-8.9351e-20 1.60927 	-1.21985 	-3.00078e-20 1.61372 	-1.20433 	-7.53935e-20 1.61848 	-1.18901 	-1.21193e-19 1.62456 	-1.17564 	-1.03667e-19 1.63186 	-1.16298 	-6.09355e-20 1.63989 	-1.1516 	3.29872e-22 1.64217 	-1.14478 	2.87435e-20 1.64478 	-1.13846 	2.82325e-20 1.64764 	-1.13252 	7.10947e-21 1.65056 	-1.12661 	-1.39629e-20 1.65368 	-1.12045 	-3.60327e-20 1.65733 	-1.1136 	-6.80144e-20 1.66107 	-1.10682 	-9.98839e-20 1.66489 	-1.10009 	-1.31641e-19 1.66894 	-1.09379 	-1.31194e-19 1.67319 	-1.0883 	-7.98824e-20 1.67834 	-1.07455 	-1.1192e-19 1.68436 	-1.0613 	-1.36184e-19 1.6917 	-1.04889 	-1.45588e-19 1.69988 	-1.03828 	-1.35259e-19 1.70797 	-1.02831 	-1.2527e-19 1.71375 	-1.01481 	-2.75573e-19 1.72002 	-1.00211 	-3.50064e-19 1.7269 	-0.990672 	-2.95993e-19 1.73405 	-0.979392 	-2.4243e-19 1.74235 	-0.969313 	-1.16087e-19 1.74444 	-0.964988 	-8.26606e-20 1.74669 	-0.961113 	-8.4871e-20 1.74899 	-0.957372 	-9.67019e-20 1.75132 	-0.953648 	-1.08485e-19 1.75378 	-0.949781 	-1.20724e-19 1.75866 	-0.942411 	-1.2434e-19 1.76365 	-0.935108 	-1.27928e-19 1.76876 	-0.927873 	-1.31488e-19 1.77401 	-0.920927 	-1.29674e-19 1.77936 	-0.915151 	-1.05243e-19 1.7854 	-0.90322 	-1.32854e-19 1.79246 	-0.891861 	-1.4483e-19 1.8004 	-0.881008 	-1.43601e-19 1.80872 	-0.871942 	-1.02956e-19 1.817 	-0.863411 	-6.09303e-20 1.82361 	-0.85172 	-1.64891e-19 1.83049 	-0.840196 	-2.6677e-19 1.83765 	-0.830503 	-2.25457e-19 1.84587 	-0.821396 	-1.27945e-19 1.85455 	-0.81295 	4.43247e-23 1.86116 	-0.802408 	1.42465e-22 1.86792 	-0.793497 	1.07897e-22 1.87488 	-0.784728 	6.93198e-23 1.88204 	-0.77606 	3.03148e-23 1.8904 	-0.766305 	-1.4576e-23 1.89079 	-0.765876 	7.31884e-22 1.89118 	-0.765448 	1.47784e-21 1.89157 	-0.765019 	2.22329e-21 1.89197 	-0.764591 	2.96824e-21 1.89234 	-0.764247 	4.35939e-22 1.89983 	-0.754791 	-2.53725e-20 1.90762 	-0.745507 	-4.72412e-20 1.91563 	-0.736335 	-6.89314e-20 1.92387 	-0.727287 	-8.98732e-20 1.93177 	-0.7203 	-3.11884e-20 1.93866 	-0.710344 	-2.11179e-20 1.94623 	-0.700826 	-1.39057e-20 1.95461 	-0.691842 	-1.03927e-20 1.96278 	-0.684572 	-1.59744e-20 1.97092 	-0.677704 	-2.24397e-20 1.97824 	-0.667997 	5.39523e-20 1.98577 	-0.658393 	1.30457e-19 1.9932 	-0.650305 	1.3236e-19 2.00151 	-0.643359 	6.57229e-20 2.00986 	-0.636617 	1.63056e-22 2.01757 	-0.627164 	9.69038e-23 2.0251 	-0.61879 	-1.12021e-20 2.03252 	-0.611249 	-3.10477e-20 2.04013 	-0.603787 	-5.08696e-20 2.04859 	-0.597147 	-6.39106e-20 2.05549 	-0.589454 	-1.06414e-19 2.06201 	-0.582954 	-1.09965e-19 2.06866 	-0.576511 	-1.13575e-19 2.07545 	-0.570125 	-1.17244e-19 2.08341 	-0.562857 	-1.21524e-19 2.08418 	-0.562181 	-1.22727e-19 2.08495 	-0.561505 	-1.23929e-19 2.08573 	-0.560831 	-1.25131e-19 2.08651 	-0.560157 	-1.26332e-19 2.08722 	-0.559609 	-1.22259e-19 2.09468 	-0.552308 	-9.43022e-20 2.10238 	-0.54515 	-6.5059e-20 2.11025 	-0.538062 	-3.58536e-20 2.11829 	-0.531042 	-6.68631e-21 2.12555 	-0.525553 	1.79209e-22 2.13271 	-0.517788 	6.74866e-20 2.14053 	-0.510806 	8.64554e-20 2.14855 	-0.503913 	1.03593e-19 2.1562 	-0.497838 	8.43181e-20 2.16322 	-0.49292 	1.48903e-20 2.1706 	-0.485397 	-5.50498e-20 2.17821 	-0.478023 	-1.18805e-19 2.18628 	-0.471383 	-1.35001e-19 2.1932 	-0.466518 	-6.72702e-20 2.20018 	-0.461738 	-7.24311e-23 2.20776 	-0.454458 	-3.95311e-23 2.21552 	-0.447237 	-6.80321e-24 2.22264 	-0.441373 	0 2.22948 	-0.436656 	0 2.23639 	-0.432013 	0 2.24414 	-0.424974 	0 2.25181 	-0.418257 	0 2.25831 	-0.413022 	0 2.26501 	-0.408246 	-1.01374e-20 2.27181 	-0.403741 	-2.51595e-20 2.2797 	-0.396943 	-6.22395e-21 2.28661 	-0.391306 	-6.35789e-21 2.29311 	-0.386256 	-1.58238e-20 2.29973 	-0.38127 	-2.67252e-20 2.3064 	-0.376903 	-6.64673e-20 2.31411 	-0.370591 	-2.84864e-20 2.32046 	-0.365689 	-3.02756e-20 2.32693 	-0.360822 	-3.20367e-20 2.33352 	-0.355987 	-3.37697e-20 2.34011 	-0.35147 	-4.64654e-20 2.34635 	-0.346613 	-3.69215e-20 2.35195 	-0.342403 	-3.83703e-20 2.35764 	-0.338217 	-3.97977e-20 2.36343 	-0.334056 	-4.12038e-20 2.37027 	-0.329242 	-4.2815e-20 2.3708 	-0.328881 	-4.2695e-20 2.37133 	-0.32852 	-4.25751e-20 2.37186 	-0.328159 	-4.24554e-20 2.37239 	-0.327799 	-4.23358e-20 2.37286 	-0.327493 	-4.2516e-20 2.37902 	-0.322903 	-4.92382e-20 2.38529 	-0.318368 	-5.37868e-20 2.39166 	-0.31386 	-5.82585e-20 2.39814 	-0.309379 	-6.26537e-20 2.40378 	-0.305653 	-3.89625e-20 2.41011 	-0.300937 	-7.51841e-20 2.41627 	-0.296577 	-8.73169e-20 2.42254 	-0.292242 	-9.93909e-20 2.42891 	-0.287933 	-1.11407e-19 2.43355 	-0.284947 	-7.12987e-20 2.44013 	-0.280162 	-1.186e-19 2.44617 	-0.275975 	-1.21126e-19 2.45231 	-0.271812 	-1.23606e-19 2.4582 	-0.267907 	-1.18998e-19 2.46217 	-0.265344 	-7.53428e-20 2.46878 	-0.260727 	-1.17872e-19 2.47495 	-0.256522 	-1.28031e-19 2.48095 	-0.252527 	-1.22425e-19 2.48588 	-0.249266 	-9.4801e-20 2.48962 	-0.246807 	-4.31994e-20 2.4962 	-0.242394 	4.31579e-20 2.5026 	-0.238174 	1.03886e-19 2.50844 	-0.234345 	1.09382e-19 2.51241 	-0.231657 	5.03718e-20 2.5159 	-0.229301 	-2.6694e-20 2.52244 	-0.225088 	-1.75907e-20 2.52909 	-0.220892 	-8.49718e-21 2.5346 	-0.217309 	8.66914e-21 2.53778 	-0.215041 	2.59575e-20 2.54101 	-0.212787 	4.32207e-20 2.54749 	-0.208769 	-4.33236e-20 2.55408 	-0.204767 	-1.29881e-19 2.55906 	-0.201546 	-1.4124e-19 2.56198 	-0.199379 	-7.10789e-20 2.56495 	-0.197224 	-1.01607e-21 2.57136 	-0.193396 	-1.0259e-22 2.57786 	-0.189584 	7.90093e-22 2.58237 	-0.186699 	-1.56663e-20 2.58502 	-0.184631 	-4.9413e-20 2.58773 	-0.182572 	-8.31347e-20 2.59404 	-0.178932 	-4.76792e-20 2.60046 	-0.175305 	-1.22394e-20 2.60453 	-0.172729 	-8.54665e-21 2.60692 	-0.170756 	-2.59302e-20 2.60935 	-0.168792 	-4.32981e-20 2.61557 	-0.165335 	-2.59875e-20 2.62187 	-0.161892 	-8.71336e-21 2.62548 	-0.159614 	-9.4577e-21 2.62767 	-0.157718 	-2.60536e-20 2.62984 	-0.155846 	-4.3379e-20 2.63595 	-0.152567 	-1.64886e-19 2.64159 	-0.149512 	-2.61773e-19 2.64504 	-0.147353 	-2.57082e-19 2.64731 	-0.145475 	-1.64748e-19 2.64921 	-0.143694 	-4.33595e-20 2.6552 	-0.140587 	-2.59815e-20 2.66021 	-0.13788 	-8.6211e-21 2.66349 	-0.135837 	8.70888e-21 2.66584 	-0.13399 	2.1309e-20 2.66747 	-0.132298 	3.0251e-20 2.67334 	-0.12936 	9.13194e-20 2.67774 	-0.126962 	1.18686e-19 2.68085 	-0.125031 	1.17012e-19 2.68329 	-0.123228 	9.21112e-20 2.68467 	-0.121622 	3.16748e-20 2.69041 	-0.118847 	2.32328e-20 2.69421 	-0.116725 	1.48071e-20 2.69716 	-0.114901 	6.38634e-21 2.69969 	-0.113152 	0 2.70081 	-0.11163 	0 2.70642 	-0.109014 	0 2.70966 	-0.107136 	1.47206e-20 2.71244 	-0.105417 	3.2551e-20 2.71506 	-0.103729 	5.03662e-20 2.71593 	-0.102288 	6.81081e-20 2.72141 	-0.0998255 	1.90105e-19 2.72412 	-0.0981632 	1.93614e-19 2.72674 	-0.0965451 	1.91088e-19 2.7294 	-0.0949302 	1.88611e-19 2.73007 	-0.0935631 	7.02146e-20 2.73521 	-0.0913005 	5.32004e-20 2.73763 	-0.089777 	3.62394e-20 2.74008 	-0.0882564 	1.92702e-20 2.74258 	-0.0867385 	2.29287e-21 2.74326 	-0.0854228 	1.46987e-20 2.74795 	-0.0833769 	-4.34306e-24 2.7502 	-0.0819477 	-2.9889e-23 2.7525 	-0.080521 	-5.54247e-23 2.75484 	-0.0790966 	-8.09503e-23 2.75552 	-0.0778365 	6.38937e-21 2.75979 	-0.0759856 	-5.08086e-20 2.76189 	-0.0746471 	-4.95095e-20 2.76403 	-0.0733107 	-4.8238e-20 2.76621 	-0.0719763 	-4.69938e-20 2.7669 	-0.0707749 	-5.64404e-21 2.77077 	-0.0690995 	8.55961e-23 2.77273 	-0.067848 	6.04898e-23 2.77472 	-0.0665983 	3.53738e-23 2.77675 	-0.0653504 	1.0248e-23 2.77743 	-0.0642097 	0 2.78093 	-0.0626923 	1.11899e-20 2.78275 	-0.0615243 	3.75133e-20 2.7846 	-0.0603578 	6.3828e-20 2.78648 	-0.0591928 	9.01339e-20 2.78715 	-0.0581141 	1.07496e-19 2.79032 	-0.0567389 	1.73101e-19 2.79199 	-0.0556508 	1.72022e-19 2.7937 	-0.054564 	1.70972e-19 2.79544 	-0.0534784 	1.69949e-19 2.7961 	-0.052462 	1.02485e-19 2.79895 	-0.0512151 	8.75807e-20 2.8005 	-0.0502034 	5.31472e-20 2.80207 	-0.0491927 	1.87081e-20 2.80367 	-0.0481832 	-1.57363e-20 2.80431 	-0.0472289 	-4.66904e-20 2.80688 	-0.0460977 	-9.0213e-20 2.8083 	-0.0451588 	-8.90051e-20 2.80974 	-0.0442209 	-8.7831e-20 2.81121 	-0.0432838 	-8.66907e-20 2.81182 	-0.0423911 	-3.70499e-20 2.81414 	-0.0413644 	-4.95369e-20 2.81543 	-0.0404949 	-3.17162e-20 2.81675 	-0.0396262 	-1.39134e-20 2.8181 	-0.0387583 	3.87163e-21 2.81868 	-0.0379259 	4.3104e-20 2.82076 	-0.0369937 	4.98619e-20 2.82194 	-0.0361903 	6.73329e-20 2.82314 	-0.0353875 	8.47956e-20 2.82437 	-0.0345854 	1.0225e-19 2.82491 	-0.0338116 	1.22065e-19 2.82678 	-0.0329653 	1.4623e-19 2.82785 	-0.0322245 	1.37007e-19 2.82895 	-0.0314843 	1.27806e-19 2.83007 	-0.0307446 	1.18626e-19 2.83055 	-0.0300278 	8.16885e-20 2.83224 	-0.0292592 	5.80648e-20 2.83321 	-0.0285779 	3.23166e-20 2.8342 	-0.0278969 	6.56652e-21 2.83521 	-0.0272164 	-1.91854e-20 2.83565 	-0.0265545 	-4.10464e-20 2.83717 	-0.0258568 	-5.61661e-20 2.83805 	-0.0252315 	-3.8392e-20 2.83894 	-0.0246067 	-2.0644e-20 2.83985 	-0.0239821 	-2.92201e-21 2.84023 	-0.0233728 	4.84831e-20 2.84161 	-0.0227398 	1.02322e-19 2.84239 	-0.0221675 	1.10002e-19 2.84319 	-0.0215955 	1.17726e-19 2.84401 	-0.0210239 	1.25493e-19 2.84433 	-0.0204649 	8.86219e-20 2.84558 	-0.0198908 	7.17989e-20 2.84628 	-0.0193684 	6.32552e-20 2.847 	-0.0188463 	5.47074e-20 2.84773 	-0.0183245 	4.61555e-20 2.84798 	-0.0178133 	3.76063e-20 2.84913 	-0.0172931 	1.44088e-20 2.84975 	-0.0168177 	1.47566e-20 2.85038 	-0.0163425 	1.50818e-20 2.85103 	-0.0158675 	1.53844e-20 2.85122 	-0.0154016 	4.14745e-20 2.85227 	-0.