# vtk DataFile Version 2.0
track0
ASCII
DATASET POLYDATA
POINTS 12278 float
-0.0205 0.001 1e-05
-0.02052 0.000999216 1e-05
-0.02054 0.000998592 1e-05
-0.02056 0.000998126 1e-05
-0.02058 0.000997818 1e-05
-0.0206 0.000997665 1e-05
-0.0205 0.00367778 1e-05
-0.02052 0.00367703 1e-05
-0.02054 0.00367643 1e-05
-0.02056 0.00367599 1e-05
-0.02058 0.00367569 1e-05
-0.0206 0.00367554 1e-05
-0.0205 0.00635556 1e-05
-0.02052 0.00635527 1e-05
-0.02054 0.00635505 1e-05
-0.02056 0.00635488 1e-05
-0.02058 0.00635476 1e-05
-0.0206 0.00635471 1e-05
-0.0205 0.00903333 1e-05
-0.02052 0.00903311 1e-05
-0.02054 0.00903293 1e-05
-0.02056 0.0090328 1e-05
-0.02058 0.00903271 1e-05
-0.0206 0.00903266 1e-05
-0.0205 0.0117111 1e-05
-0.02052 0.0117111 1e-05
-0.02054 0.011711 1e-05
-0.02056 0.011711 1e-05
-0.02058 0.011711 1e-05
-0.0206 0.011711 1e-05
-0.0205 0.0143889 1e-05
-0.02052 0.014389 1e-05
-0.02054 0.014389 1e-05
-0.02056 0.0143891 1e-05
-0.02058 0.0143891 1e-05
-0.0206 0.0143891 1e-05
-0.0205 0.0170667 1e-05
-0.02052 0.017067 1e-05
-0.02054 0.0170672 1e-05
-0.02056 0.0170674 1e-05
-0.02058 0.0170675 1e-05
-0.0206 0.0170676 1e-05
-0.0205 0.0197444 1e-05
-0.02052 0.019745 1e-05
-0.02054 0.0197454 1e-05
-0.02056 0.0197457 1e-05
-0.02058 0.0197459 1e-05
-0.0206 0.019746 1e-05
-0.0205 0.0224222 1e-05
-0.02052 0.022423 1e-05
-0.02054 0.0224236 1e-05
-0.02056 0.0224241 1e-05
-0.02058 0.0224244 1e-05
-0.0206 0.0224245 1e-05
-0.0205 0.0251 1e-05
-0.02052 0.0251003 1e-05
-0.02054 0.0251005 1e-05
-0.02056 0.0251007 1e-05
-0.02058 0.0251008 1e-05
-0.0206 0.0251008 1e-05
-0.0205 0.001 1e-05
-0.0203632 0.00100536 1e-05
-0.0202266 0.00101331 1e-05
-0.0200901 0.00102296 1e-05
-0.0200427 0.00102682 1e-05
-0.0198376 0.00104418 1e-05
-0.0196338 0.00107322 1e-05
-0.0194327 0.00111734 1e-05
-0.0192368 0.00118024 1e-05
-0.0190172 0.00124951 1e-05
-0.0189002 0.00128348 1e-05
-0.0187827 0.00131598 1e-05
-0.0186649 0.001347 1e-05
-0.0185469 0.001377 1e-05
-0.0183807 0.00141936 1e-05
-0.0182041 0.00146458 1e-05
-0.0180267 0.00150692 1e-05
-0.0178487 0.0015464 1e-05
-0.0176703 0.00158389 1e-05
-0.0174976 0.00161991 1e-05
-0.0172846 0.00166394 1e-05
-0.0170715 0.00170741 1e-05
-0.0168583 0.00175029 1e-05
-0.0166449 0.00179219 1e-05
-0.0163945 0.00184007 1e-05
-0.0163234 0.00185324 1e-05
-0.0162522 0.00186629 1e-05
-0.016181 0.00187921 1e-05
-0.0161097 0.00189201 1e-05
-0.0160387 0.0019046 1e-05
-0.0157586 0.0019535 1e-05
-0.0154779 0.00199931 1e-05
-0.0151968 0.00204225 1e-05
-0.0149154 0.00208283 1e-05
-0.0146381 0.00212134 1e-05
-0.0143838 0.00215527 1e-05
-0.0141293 0.00218766 1e-05
-0.0138747 0.00221855 1e-05
-0.0136198 0.00224797 1e-05
-0.0132934 0.00228369 1e-05
-0.0132791 0.00228515 1e-05
-0.0132648 0.0022866 1e-05
-0.0132504 0.00228805 1e-05
-0.0132361 0.0022895 1e-05
-0.0132214 0.00229098 1e-05
-0.0129776 0.00231543 1e-05
-0.0127337 0.00233865 1e-05
-0.0124897 0.00236061 1e-05
-0.0122456 0.0023813 1e-05
-0.0120025 0.00240058 1e-05
-0.0117547 0.00241909 1e-05
-0.0115067 0.00243627 1e-05
-0.0112587 0.00245231 1e-05
-0.0110106 0.00246734 1e-05
-0.0107632 0.00248136 1e-05
-0.0105252 0.00249391 1e-05
-0.0102872 0.00250547 1e-05
-0.0100491 0.00251602 1e-05
-0.00981105 0.00252575 1e-05
-0.00957337 0.00253471 1e-05
-0.00934491 0.00254261 1e-05
-0.00911643 0.00254974 1e-05
-0.00888792 0.00255611 1e-05
-0.0086594 0.00256172 1e-05
-0.00843108 0.00256669 1e-05
-0.00821175 0.00257085 1e-05
-0.00799241 0.00257439 1e-05
-0.00777306 0.00257731 1e-05
-0.0075537 0.00257953 1e-05
-0.00733443 0.00258115 1e-05
-0.00712387 0.00258213 1e-05
-0.0069133 0.00258256 1e-05
-0.00670273 0.00258243 1e-05
-0.00649216 0.00258162 1e-05
-0.0062816 0.00258018 1e-05
-0.00607944 0.0025782 1e-05
-0.0058773 0.00257566 1e-05
-0.00567516 0.00257257 1e-05
-0.00547303 0.00256875 1e-05
-0.00527083 0.0025642 1e-05
-0.00507675 0.00255913 1e-05
-0.00488269 0.00255344 1e-05
-0.00468865 0.00254712 1e-05
-0.00449464 0.00253998 1e-05
-0.00430044 0.00253191 1e-05
-0.00411412 0.0025233 1e-05
-0.00392784 0.00251389 1e-05
-0.00374159 0.0025037 1e-05
-0.0035554 0.00249256 1e-05
-0.00336883 0.00248017 1e-05
-0.00318995 0.00246713 1e-05
-0.00301115 0.00245301 1e-05
-0.00283245 0.00243776 1e-05
-0.00265386 0.00242122 1e-05
-0.00247443 0.00240315 1e-05
-0.0023027 0.00238427 1e-05
-0.00213114 0.00236385 1e-05
-0.00195982 0.00234155 1e-05
-0.00178875 0.0023174 1e-05
-0.00161577 0.00229107 1e-05
-0.00161566 0.00229105 1e-05
-0.00161554 0.00229103 1e-05
-0.00161543 0.00229101 1e-05
-0.00161532 0.002291 1e-05
-0.0016152 0.00229098 1e-05
-0.00145045 0.00226407 1e-05
-0.00128609 0.00223482 1e-05
-0.00112216 0.00220327 1e-05
-0.000958677 0.00216948 1e-05
-0.000791418 0.00213238 1e-05
-0.000633135 0.00209427 1e-05
-0.000475556 0.00205334 1e-05
-0.000318719 0.00200966 1e-05
-0.000162834 0.00196269 1e-05
0 0.00190953 1e-05
3.73499e-05 0.00189633 1e-05
7.45997e-05 0.00188285 1e-05
0.000111751 0.0018691 1e-05
0.000148805 0.00185508 1e-05
0.000179121 0.00184338 1e-05
0.000248974 0.00181594 1e-05
0.000318417 0.00178748 1e-05
0.000387434 0.00175801 1e-05
0.000456012 0.00172752 1e-05
0.000528387 0.00169415 1e-05
0.000634886 0.00164317 1e-05
0.000740278 0.00158994 1e-05
0.00084451 0.00153447 1e-05
0.00094762 0.00147695 1e-05
0.00101991 0.00143469 1e-05
0.00102811 0.00142973 1e-05
0.00103629 0.00142477 1e-05
0.00104447 0.00141978 1e-05
0.00105263 0.00141479 1e-05
0.00106088 0.00140972 1e-05
0.00116821 0.00134353 1e-05
0.00127404 0.00127497 1e-05
0.00137827 0.00120402 1e-05
0.00148099 0.00113089 1e-05
0.00159671 0.00104511 1e-05
0.00159687 0.00104498 1e-05
0.00159704 0.00104486 1e-05
0.0015972 0.00104473 1e-05
0.00159736 0.00104461 1e-05
0.00159752 0.00104448 1e-05
0.00169219 0.000970911 1e-05
0.00178545 0.000895572 1e-05
0.00187724 0.000818435 1e-05
0.00196761 0.000739643 1e-05
0.00203801 0.000676367 1e-05
0.00205807 0.000657878 1e-05
0.00207805 0.0006393 1e-05
0.00209795 0.000620633 1e-05
0.00211779 0.000601902 1e-05
0.00213833 0.000582388 1e-05
0.00219146 0.000531569 1e-05
0.0022441 0.000480234 1e-05
0.00229622 0.000428373 1e-05
0.00234781 0.000375982 1e-05
0.00239411 0.000328255 1e-05
0.00245195 0.000267794 1e-05
0.00250917 0.000206733 1e-05
0.00256575 0.000145089 1e-05
0.00262182 8.29789e-05 1e-05
0.00268334 1.36556e-05 1e-05
0.00268571 1.09245e-05 1e-05
0.00268809 8.19236e-06 1e-05
0.00269046 5.45921e-06 1e-05
0.00269284 2.72504e-06 1e-05
0.0026952 0 1e-05
0.0027591 -7.37368e-05 1e-05
0.00282237 -0.000148005 1e-05
0.00288501 -0.000222813 1e-05
0.00294699 -0.000298173 1e-05
0.00300406 -0.000368654 1e-05
0.00304977 -0.000425935 1e-05
0.00309516 -0.000483461 1e-05
0.00314025 -0.000541229 1e-05
0.00318509 -0.000599192 1e-05
0.00323259 -0.000661169 1e-05
0.00325063 -0.000684954 1e-05
0.00326863 -0.000708779 1e-05
0.00328657 -0.000732643 1e-05
0.00330446 -0.000756548 1e-05
0.003322 -0.00078009 1e-05
0.00339014 -0.000871877 1e-05
0.00345769 -0.000964107 1e-05
0.0035246 -0.00105679 1e-05
0.00359098 -0.00114986 1e-05
0.00365384 -0.00123896 1e-05
0.00368029 -0.00127685 1e-05
0.00370667 -0.00131479 1e-05
0.00373297 -0.00135279 1e-05
0.00375922 -0.00139082 1e-05
0.00378611 -0.00142989 1e-05
0.00383009 -0.00149401 1e-05
0.00387386 -0.00155827 1e-05
0.0039174 -0.00162268 1e-05
0.00396073 -0.00168724 1e-05
0.00400288 -0.00175044 1e-05
0.00407109 -0.00185327 1e-05
0.00413888 -0.00195638 1e-05
0.00420625 -0.00205977 1e-05
0.00427333 -0.00216334 1e-05
0.00434393 -0.00227302 1e-05
0.00434998 -0.00228248 1e-05
0.00435602 -0.00229194 1e-05
0.00436206 -0.0023014 1e-05
0.00436809 -0.00231086 1e-05
0.00437411 -0.0023203 1e-05
0.00445495 -0.00244725 1e-05
0.00453535 -0.00257449 1e-05
0.00461535 -0.00270197 1e-05
0.00469499 -0.00282968 1e-05
0.00477287 -0.00295498 1e-05
0.00479951 -0.002998 1e-05
0.00482613 -0.00304104 1e-05
0.00485272 -0.00308409 1e-05
0.00487931 -0.00312715 1e-05
0.00490609 -0.00317053 1e-05
0.00496672 -0.00326875 1e-05
0.00502721 -0.00336706 1e-05
0.00508754 -0.00346547 1e-05
0.00514774 -0.00356395 1e-05
0.00520739 -0.00366161 1e-05
0.00526043 -0.00374852 1e-05
0.00531344 -0.00383545 1e-05
0.00536641 -0.00392241 1e-05
0.0054194 -0.00400936 1e-05
0.00547262 -0.00409657 1e-05
0.00551559 -0.00416688 1e-05
0.00555853 -0.00423721 1e-05
0.00560144 -0.00430756 1e-05
0.00564432 -0.00437792 1e-05
0.00568714 -0.00444811 1e-05
0.00575843 -0.00456486 1e-05
0.00582975 -0.00468158 1e-05
0.00590113 -0.00479828 1e-05
0.00597264 -0.00491489 1e-05
0.00604356 -0.00503006 1e-05
0.00607981 -0.0050887 1e-05
0.00611607 -0.00514733 1e-05
0.00615233 -0.00520596 1e-05
0.00618862 -0.00526458 1e-05
0.00622502 -0.00532326 1e-05
0.0063038 -0.00545003 1e-05
0.00638277 -0.00557669 1e-05
0.00646194 -0.00570323 1e-05
0.00654138 -0.0058296 1e-05
0.00661893 -0.00595214 1e-05
0.00666282 -0.00602106 1e-05
0.00670677 -0.00608993 1e-05
0.00675076 -0.00615878 1e-05
0.00679484 -0.00622757 1e-05
0.00683931 -0.00629671 1e-05
0.0069112 -0.00640814 1e-05
0.00698335 -0.0065194 1e-05
0.00705575 -0.00663049 1e-05
0.00712845 -0.00674139 1e-05
0.00719878 -0.00684788 1e-05
0.00726945 -0.00695411 1e-05
0.00734035 -0.00706019 1e-05
0.00741147 -0.00716613 1e-05
0.0074829 -0.00727185 1e-05
0.00755586 -0.00737909 1e-05
0.00760131 -0.00744542 1e-05
0.0076469 -0.00751166 1e-05
0.00769261 -0.00757782 1e-05
0.00773845 -0.00764388 1e-05
0.00778313 -0.00770794 1e-05
0.00790091 -0.00787591 1e-05
0.00801946 -0.00804335 1e-05
0.00813878 -0.00821023 1e-05
0.0082591 -0.0083764 1e-05
0.00837203 -0.00853032 1e-05
0.0083797 -0.00854063 1e-05
0.00838738 -0.00855094 1e-05
0.00839506 -0.00856125 1e-05
0.00840274 -0.00857156 1e-05
0.00841044 -0.00858189 1e-05
0.00852146 -0.00873058 1e-05
0.00863329 -0.00887866 1e-05
0.00874597 -0.0090261 1e-05
0.00885952 -0.00917287 1e-05
0.00896551 -0.00930801 1e-05
0.00903008 -0.00938927 1e-05
0.00909491 -0.00947032 1e-05
0.00916 -0.00955116 1e-05
0.0092254 -0.00963176 1e-05
0.00929296 -0.00971438 1e-05
0.00934709 -0.00978005 1e-05
0.00940141 -0.00984555 1e-05
0.00945593 -0.00991089 1e-05
0.00951065 -0.00997606 1e-05
0.0095636 -0.0100387 1e-05
[...]
POINT_DATA 12278
 FIELD attributes 2
p 1 12278 float
177014 177096 177169 177232 177286 177331
108948 108966 108982 108996 109008 109019
87754.2 87763.8 87773.1 87782.3 87791.2 87799.7
79936.5 79942.8 79949 79955.1 79961.2 79967.2
77145.6 77154.8 77164 77173.2 77182.5 77191.7
77563 77576.5 77590.1 77603.7 77617.2 77630.8
81096.1 81108.6 81120.8 81132.9 81144.8 81156.6
90922.6 90942.4 90961.4 90979.7 90997.3 91014.1
117355 117387 117418 117446 117472 117496
215473 215284 215092 214898 214702 214503
177014 173409 169082 164503 162837 158905 155523 152872 144707 134666 129223 123794 119856 119245 118393 112348 106448 102327 101432 100565 99582.5 98600.3 97173.7 95705.4 93989.7 93623.3 93256.3 92888.7 92407.7 91910 89990.4 88186.5 86672.6 85885.2 85108.5 84422.7 83757.9 83108.1 82456.3 81622.4 81587.5 81558.6 81530.5 81502.5 81473.7 80940.9 80408.6 79876.8 79345.5 78920.4 78494.2 78085 77687.3 77311.7 76945.7 76595.8 76245.5 75921.8 75620.3 75319.2 75029.7 74740.1 74461.6 74198.8 73936.1 73682.5 73428.8 73178.7 72942.5 72706.5 72477.6 72248.7 72018.1 71798.6 71579.5 71365.8 71152.3 70933.6 70722.8 70512.1 70305 70098.1 69885.1 69672.7 69460.5 69248.6 69037.1 68822 68593.9 68366.3 68133.4 67897.7 67653.7 67401 67135.1 66854.8 66541.1 66228.9 65918.3 65605.3 65605 65604.7 65604.4 65604.1 65603.8 65212.6 64827.1 64447.3 64049.2 63569.2 63053.7 62543.9 61842.9 61069.8 60256.7 60008.4 59770.4 59543.3 59316.8 59131.4 58574.6 58015.5 57454.4 56981.2 56512.9 55908.4 55305.6 54765.9 54224.8 53840.2 53782.1 53723.9 53668.6 53621 53572.8 53019.6 52459.3 51941.3 51468.9 50923.5 50922.4 50921.4 50920.5 50919.7 50919 50491.8 50057.2 49654.7 49319.2 49050.2 48951 48851.3 48780.5 48710.8 48638.2 48449.8 48259 48066.4 47922 47789.9 47617.1 47448.5 47308.8 47167.1 47007.8 47001.4 46995 46988.6 46982.8 46977.2 46871.9 46759.7 46644.9 46531.6 46424.7 46389.1 46352.4 46312.8 46272.5 46228.6 46208.5 46188.3 46167.8 46146.7 46125.6 46100.2 46073.5 46036.4 45994.1 45952.6 45955 45957.1 45956.4 45955.6 45954.6 45943.3 45931.6 45919.5 45904.4 45889.2 45899 45908.1 45912.7 45916.6 45920.3 45919.5 45918.6 45917.8 45916.7 45915.7 45929.2 45942.8 45955.5 45966.2 45976.5 45986.8 45997 46006.8 46016.5 46026.3 46037.8 46049.2 46060.5 46071.5 46082.5 46100.9 46119.3 46137.8 46156.3 46174.9 46183.5 46192 46200.7 46209.8 46218.9 46241.6 46264.3 46287.7 46311.6 46335.4 46342.8 46350.2 46357.9 46366.2 46374.4 46397.6 46421 46445.1 46470.4 46495.1 46504 46513 46522.6 46532.8 46543.1 46562.8 46582.6 46602.9 46624.8 46646.1 46659.9 46673.9 46689.6 46705.9 46722.6 46734.1 46745.7 46757.4 46770.1 46782.4 46804.4 46826.5 46852 46878.2 46904.1 46905.2 46906.3 46907.7 46909.1 46910.5 46931.6 46953 46974.8 46998.7 47021.1 47030.6 47040.2 47051.2 47062.3 47073.7 47083.4 47093.1 47102.9 47113.3 47123.5 47140.7 47158 47176.9 47196.8 47216.2 47218.7 47221.4 47224.3 47227.2 47230.2 47244.6 47259 47273.5 47289.1 47304.1 47317.8 47332 47347.5 47363.1 47379.9 47380 47380.1 47380.2 47380.3 47380.4 47394.9 47409.7 47424.5 47440.4 47455.6 47467.7 47480.2 47493.8 47507.5 47520.7 47521.3 47521.9 47522.6 47523.3 47523.9 47535.7 47547.6 47559.5 47572.1 47584.6 47594.9 47605.2 47616.9 47629 47641 47645.1 47649.5 47654.1 47658.8 47663.7 47669.5 47675.4 47681.3 47687.4 47693.8 47702.6 47711.7 47721.5 47732.4 47742.8 47750.4 47758.5 47767.4 47776.4 47785.5 47787.6 47790.1 47792.6 47795.1 47797.8 47803.2 47808.5 47813.9 47819.4 47825.5 47831.7 47838.3 47845.2 47853.2 47861 47866.1 47871.2 47877.4 47884.1 47890.8 47894.4 47899 47903.7 47908.4 47913.6 47913.9 47914.1 47914.4 47914.6 47914.9 47919.1 47923.2 47927.3 47931.4 47936.5 47938.8 47941.4 47944.3 47948.2 47952.1 47953.3 47954.4 47956.3 47959 47961.7 47961.7 47962.2 47963.1 47963.9 47965.4 47964.5 47964.3 47964 47963.7 47963.3 47963.3 47963.3 47963.2 47963.2 47963.2 47961.9 47960.6 47959.2 47957.8 47957 47953.8 47951.3 47948.7 47946.5 47944.6 47940.3 47936 47932.2 47929.2 47926.1 47920.6 47915.1 47910.2 47905.9 47901.6 47895 47888.4 47882.3 47876.6 47871.1 47863.4 47856 47848.7 47841.5 47834.9 47826.1 47817.8 47809.4 47801 47792.9 47784.3 47775.9 47767.4 47759 47749.1 47748.4 47747.6 47746.9 47746.1 47745.4 47735 47724.5 47714.1 47703.6 47693.3 47681.5 47670 47658.5 47647 47635.7 47622.7 47610.3 47597.8 47585.3 47573 47559 47545.4 47532 47518.6 47505.3 47490.4 47475.7 47461.3 47447 47432.7 47417 47401.3 47386 47370.8 47355.6 47339.1 47322.5 47306.2 47290.2 47274.1 47256.7 47239.4 47222.2 47205.3 47188.4 47170.3 47152.2 47134.1 47116.4 47098.7 47079.9 47061 47042.2 47023.7 47005.2 46985.7 46966.2 46946.6 46927.3 46908.1 46888 46867.8 46847.6 46827.5 46807.6 46786.9 46766.1 46745.3 46724.5 46704 46682.7 46661.3 46639.8 46618.4 46597.3 46575.4 46553.5 46531.5 46509.5 46487.7 46465.4 46442.9 46420.3 46397.8 46375.5 46352.7 46329.7 46306.6 46283.6 46260.8 46237.5 46214 46190.5 46167 46143.7 46119.9 46096 46072.1 46048.2 46024.4 46000.2 45975.9 45951.6 45927.2 45903 45878.4 45853.7 45829 45804.3 45779.7 45754.7 45729.7 45704.6 45679.5 45654.5 45629.2 45603.8 45578.4 45553 45527.6 45502 45476.3 45450.6 45424.8 45399.1 45373.2 45347.2 45321.2 45295.1 45269.1 45242.9 45216.6 45190.3 45164 45137.7 45111.2 45084.6 45058.1 45031.5 45004.9 44978.2 44951.3 44924.5 44897.7 44870.9 44843.9 44816.8 44789.7 44762.7 44735.6 44708.4 44681.1 44653.8 44626.5 44599.2 44571.8 44544.3 44516.7 44489.2 44461.7 44434.1 44406.3 44378.6 44350.9 44323.2 44295.3 44267.4 44239.5 44211.6 44183.7 44155.6 44127.5 44099.4 44071.2 44043.1 44014.9 43986.6 43958.3 43930 43901.7 43873.2 43844.8 43816.3 43787.8 43759.3 43730.7 43702 43673.4 43644.7 43616 43587.2 43558.4 43529.6 43500.7 43471.9 43442.9 43413.9 43384.9 43355.9 43326.9 43297.7 43268.5 43239.4 43210.2 43181 43151.7 43122.3 43093 43063.6 43034.3 43004.8 42975.3 42945.7 42916.2 42886.7 42857 42827.3 42797.6 42767.9 42738.2 42708.4 42678.5 42648.7 42618.8 42588.9 42558.9 42528.9 42498.8 42468.8 42438.8 42408.6 42378.4 42348.2 42317.9 42287.7 42257.4 42227 42196.6 42166.2 42135.8 42105.2 42074.7 42044.1 42013.5 41982.9 41952.2 41921.5 41890.7 41860 41829.2 41798.3 41767.4 41736.4 41705.5 41674.5 41643.4 41612.3 41581.2 41550.1 41518.9 41487.6 41456.3 41425 41393.7 41362.3 41330.9 41299.4 41267.9 41236.4 41204.8 41173.1 41141.4 41109.7 41078 41046.3 41014.4 40982.5 40950.6 40918.7 40886.7 40854.6 40822.5 40790.4 40758.3 40726.1 40693.8 40661.5 40629.2 40596.8 40564.5 40532 40499.4 40466.9 40434.3 40401.7 40369 40336.3 40303.5 40270.8 40237.9 40205 40172 40139 40106.1 40073 40039.9 40006.7 39973.4 39940.2 39907 39873.6 39840.1 39806.7 39773.3 39739.8 39706.1 39672.5 39638.8 39605.1 39571.4 39537.5 39503.6 39469.7 39435.8 39401.8 39367.7 39333.6 39299.4 39265.3 39231 39196.7 39162.3 39127.9 39093.5 39059 39024.5 38989.8 38955.2 38920.5 38885.8 38851 38816.1 38781.2 38746.3 38711.3 38676.2 38641 38605.9 38570.7 38535.5 38500.1 38464.7 38429.3 38393.9 38358.4 38322.8 38287.1 38251.4 38215.7 38180 38144.1 38108.2 38072.2 38036.3 38000.2 37964.1 37927.9 37891.7 37855.4 37819.1 37782.7 37746.2 37709.7 37673.2 37636.7 37600 37563.2 37526.5 37489.7 37452.8 37415.8 37378.8 37341.8 37304.7 37267.6 37230.3 37193 37155.7 37118.3 37080.9 37043.4 37005.8 36968.2 36930.5 36892.8 36855 36817.1 36779.2 36741.3 36703.3 36665.2 36627 36588.8 36550.6 36512.3 36473.9 36435.5 36397 36358.5 36319.9 36281.2 36242.4 36203.6 36164.8 36126 36086.9 36047.9 36008.8 35969.7 35930.5 35891.2 35851.9 35812.5 35773 35733.6 35694 35654.3 35614.6 35574.9 35535.1 35495.2 35455.2 35415.2 35375.2 35335.1 35294.9 35254.6 35214.3 35173.9 35133.5 35093 35052.4 35011.8 34971.1 34930.4 34889.6 34848.7 34807.7 34766.7 34725.7 34684.5 34643.3 34602.1 34560.8 34519.4 34477.9 34436.4 34394.8 34353.2 34311.5 34269.7 34227.8 34185.9 34144 34102 34059.8 34017.7 33975.5 33933.2 33890.8 33848.4 33805.9 33763.3 33720.7 33678.1 33635.2 33592.4 33549.5 33506.6 33463.6 33420.5 33377.3 33334.1 33290.8 33247.5 33204 33160.5 33117 33073.3 33029.7 32985.9 32942.1 32898.2 32854.2 32810.2 32766 32721.9 32677.6 32633.3 32589 32544.5 32500 32455.4 32410.7 32366.1 32321.2 32276.4 32231.4 32186.4 32141.4 32096.2 32051 32005.7 31960.4 31915 31869.4 31823.9 31778.2 31732.5 31686.8 31640.9 31595 31549 31502.9 31456.9 31410.6 31364.3 31318 31271.5 31225.1 31178.5 31131.9 31085.1 31038.4 30991.6 30944.6 30897.6 30850.5 30803.4 30756.2 30708.8 30661.5 30614 30566.5 30519 30471.3 30423.5 30375.7 30327.8 30279.9 30231.8 30183.7 30135.6 30087.3 30039 29990.5 29942.1 29893.5 29844.9 29796.2 29747.4 29698.5 29649.6 29600.5 29551.5 29502.3 29453 29403.7 29354.3 29304.9 29255.3 29205.6 29155.9 29106.1 29056.4 29006.3 28956.3 28906.2 28856 28805.9 28755.4 28705 28654.5 28604 28553.4 28502.6 28451.7 28400.8 28349.9 28298.9 28247.7 28196.5 28145.2 28093.8 28042.4 27990.8 27939.2 27887.4 27835.7 27783.9 27731.8 27679.8 27627.7 27575.5 27523.3 27470.8 27418.4 27365.8 27313.2 27260.6 27207.7 27154.8 27101.9 27048.9 26995.8 26942.5 26889.2 26835.8 26782.4 26728.9 26675.2 26621.4 26567.7 26513.8 26459.9 26405.7 26351.6 26297.4 26243.1 26188.8 26134.2 26079.6 26025 25970.3 25915.6 25860.6 25805.7 25750.7 25695.6 25640.5 25585.2 25529.8 25474.5 25419.1 25363.7 25308.1 25252.4 25196.8 25141.2 25085.5 25029.7 24973.9 24918.1 24862.4 24806.7 24750.7 24695 24639.3 24583.6 24528 24472.2 24416.9 24361.8 24306.8 24252.1 24197.4 24142.4 24087.4 24032.4 23977 23922.3 23873.7 23825 23776.4 23732.6 23683.5 23618.1 23552.7 23487.1 23412.7 23361.5 23331.1 23301 23271.3 23257 23252.9 23248.7 23244.6 23240.4 23238.8 23236.2 23231 23225.7 23220.5 23214.7 23187.8 23160.6 23133.1 23105.4 23061.8 22985.9 22916.9 22848 22779.2 22722.9 22671.7 22615.4 22559.1 22502.7 22440 22372.3 22304.2 22236.1 22168 22099.5 22028.2 21955 21881.8 21808.5 21733.2 21655 21575.2 21495.4 21415.5 21334.1 21249.9 21163.7 21077.6 20991.4 20903.5 20812.5 20719.5 20626.6 20533.5 20438.7 20340.7 20240.4 20140.1 20039.7 19937.4 19831.5 19723.3 19615 19506.6 19396.2 19281.8 19164.8 19047.6 18930.2 18810.5 18686.4 18559.7 18432.8 18305.8 18176.4 18042.3 17904.3 17766.2 17627.8 17486 17339 17189.3 17039.5 16889.5 16737.2 16579.4 16414.9 16250 16084.7 15913.3 15735.5 15557.4 15379.2 15201.1 15023 14838.3 14638.8 14438.5 14237.4 14022.2 13798.9 13585.9 13373.4 13161.4 12960.1 12751.2 12503.7 12253.9 12002.1 11712.7 11412.6 11157.2 10904.8 10655 10450.2 10237.7 9921.68 9598.1 9265.95 8833.27 8384.28 8071.53 7773.91 7494.32 7349.22 7198.18 6801.7 6357.24 5839.01 5089.64 4311.35 3779.21 3398.29 3250.92 3316.66 3382.96 3362 2777.13 1388.16 0