# vtk DataFile Version 2.0
track0
ASCII
DATASET POLYDATA
POINTS 12278 float
-0.0205 0.001 1e-05
-0.02052 0.000999216 1e-05
-0.02054 0.000998592 1e-05
-0.02056 0.000998126 1e-05
-0.02058 0.000997818 1e-05
-0.0206 0.000997665 1e-05
-0.0205 0.00367778 1e-05
-0.02052 0.00367703 1e-05
-0.02054 0.00367643 1e-05
-0.02056 0.00367599 1e-05
-0.02058 0.00367569 1e-05
-0.0206 0.00367554 1e-05
-0.0205 0.00635556 1e-05
-0.02052 0.00635527 1e-05
-0.02054 0.00635505 1e-05
-0.02056 0.00635488 1e-05
-0.02058 0.00635476 1e-05
-0.0206 0.00635471 1e-05
-0.0205 0.00903333 1e-05
-0.02052 0.00903311 1e-05
-0.02054 0.00903293 1e-05
-0.02056 0.0090328 1e-05
-0.02058 0.00903271 1e-05
-0.0206 0.00903266 1e-05
-0.0205 0.0117111 1e-05
-0.02052 0.0117111 1e-05
-0.02054 0.011711 1e-05
-0.02056 0.011711 1e-05
-0.02058 0.011711 1e-05
-0.0206 0.011711 1e-05
-0.0205 0.0143889 1e-05
-0.02052 0.014389 1e-05
-0.02054 0.014389 1e-05
-0.02056 0.0143891 1e-05
-0.02058 0.0143891 1e-05
-0.0206 0.0143891 1e-05
-0.0205 0.0170667 1e-05
-0.02052 0.017067 1e-05
-0.02054 0.0170672 1e-05
-0.02056 0.0170674 1e-05
-0.02058 0.0170675 1e-05
-0.0206 0.0170676 1e-05
-0.0205 0.0197444 1e-05
-0.02052 0.019745 1e-05
-0.02054 0.0197454 1e-05
-0.02056 0.0197457 1e-05
-0.02058 0.0197459 1e-05
-0.0206 0.019746 1e-05
-0.0205 0.0224222 1e-05
-0.02052 0.022423 1e-05
-0.02054 0.0224236 1e-05
-0.02056 0.0224241 1e-05
-0.02058 0.0224244 1e-05
-0.0206 0.0224245 1e-05
-0.0205 0.0251 1e-05
-0.02052 0.0251003 1e-05
-0.02054 0.0251005 1e-05
-0.02056 0.0251007 1e-05
-0.02058 0.0251008 1e-05
-0.0206 0.0251008 1e-05
-0.0205 0.001 1e-05
-0.0203632 0.00100536 1e-05
-0.0202266 0.00101331 1e-05
-0.0200901 0.00102296 1e-05
-0.0200427 0.00102682 1e-05
-0.0198376 0.00104418 1e-05
-0.0196338 0.00107322 1e-05
-0.0194327 0.00111734 1e-05
-0.0192368 0.00118024 1e-05
-0.0190172 0.00124951 1e-05
-0.0189002 0.00128348 1e-05
-0.0187827 0.00131598 1e-05
-0.0186649 0.001347 1e-05
-0.0185469 0.001377 1e-05
-0.0183807 0.00141936 1e-05
-0.0182041 0.00146458 1e-05
-0.0180267 0.00150692 1e-05
-0.0178487 0.0015464 1e-05
-0.0176703 0.00158389 1e-05
-0.0174976 0.00161991 1e-05
-0.0172846 0.00166394 1e-05
-0.0170715 0.00170741 1e-05
-0.0168583 0.00175029 1e-05
-0.0166449 0.00179219 1e-05
-0.0163945 0.00184007 1e-05
-0.0163234 0.00185324 1e-05
-0.0162522 0.00186629 1e-05
-0.016181 0.00187921 1e-05
-0.0161097 0.00189201 1e-05
-0.0160387 0.0019046 1e-05
-0.0157586 0.0019535 1e-05
-0.0154779 0.00199931 1e-05
-0.0151968 0.00204225 1e-05
-0.0149154 0.00208283 1e-05
-0.0146381 0.00212134 1e-05
-0.0143838 0.00215527 1e-05
-0.0141293 0.00218766 1e-05
-0.0138747 0.00221855 1e-05
-0.0136198 0.00224797 1e-05
-0.0132934 0.00228369 1e-05
-0.0132791 0.00228515 1e-05
-0.0132648 0.0022866 1e-05
-0.0132504 0.00228805 1e-05
-0.0132361 0.0022895 1e-05
-0.0132214 0.00229098 1e-05
-0.0129776 0.00231543 1e-05
-0.0127337 0.00233865 1e-05
-0.0124897 0.00236061 1e-05
-0.0122456 0.00238129 1e-05
-0.0120025 0.00240058 1e-05
-0.0117547 0.00241909 1e-05
-0.0115067 0.00243627 1e-05
-0.0112587 0.00245231 1e-05
-0.0110106 0.00246734 1e-05
-0.0107632 0.00248136 1e-05
-0.0105252 0.00249391 1e-05
-0.0102872 0.00250547 1e-05
-0.0100491 0.00251602 1e-05
-0.00981105 0.00252575 1e-05
-0.00957337 0.00253471 1e-05
-0.00934491 0.00254261 1e-05
-0.00911643 0.00254974 1e-05
-0.00888792 0.0025561 1e-05
-0.0086594 0.00256171 1e-05
-0.00843108 0.00256668 1e-05
-0.00821175 0.00257084 1e-05
-0.00799241 0.00257439 1e-05
-0.00777306 0.00257731 1e-05
-0.0075537 0.00257952 1e-05
-0.00733443 0.00258114 1e-05
-0.00712387 0.00258212 1e-05
-0.0069133 0.00258255 1e-05
-0.00670273 0.00258243 1e-05
-0.00649216 0.00258162 1e-05
-0.0062816 0.00258017 1e-05
-0.00607944 0.00257819 1e-05
-0.0058773 0.00257565 1e-05
-0.00567516 0.00257256 1e-05
-0.00547303 0.00256874 1e-05
-0.00527083 0.00256419 1e-05
-0.00507675 0.00255912 1e-05
-0.00488269 0.00255342 1e-05
-0.00468865 0.0025471 1e-05
-0.00449464 0.00253997 1e-05
-0.00430044 0.0025319 1e-05
-0.00411412 0.00252329 1e-05
-0.00392784 0.00251388 1e-05
-0.00374159 0.00250368 1e-05
-0.0035554 0.00249254 1e-05
-0.00336883 0.00248015 1e-05
-0.00318995 0.00246711 1e-05
-0.00301115 0.00245299 1e-05
-0.00283245 0.00243774 1e-05
-0.00265386 0.0024212 1e-05
-0.00247443 0.00240314 1e-05
-0.0023027 0.00238425 1e-05
-0.00213114 0.00236383 1e-05
-0.00195982 0.00234153 1e-05
-0.00178875 0.00231737 1e-05
-0.00161577 0.00229105 1e-05
-0.00161569 0.00229103 1e-05
-0.00161561 0.00229102 1e-05
-0.00161552 0.002291 1e-05
-0.00161544 0.00229099 1e-05
-0.00161536 0.00229098 1e-05
-0.00145057 0.00226407 1e-05
-0.00128618 0.00223481 1e-05
-0.00112222 0.00220325 1e-05
-0.000958709 0.00216946 1e-05
-0.000791418 0.00213235 1e-05
-0.000633135 0.00209424 1e-05
-0.000475556 0.00205331 1e-05
-0.000318719 0.00200962 1e-05
-0.000162835 0.00196265 1e-05
0 0.0019095 1e-05
3.733e-05 0.0018963 1e-05
7.45601e-05 0.00188283 1e-05
0.000111692 0.00186908 1e-05
0.000148726 0.00185508 1e-05
0.000179029 0.00184337 1e-05
0.000248901 0.00181593 1e-05
0.000318361 0.00178747 1e-05
0.000387397 0.00175798 1e-05
0.000455992 0.00172749 1e-05
0.000528387 0.00169411 1e-05
0.000634886 0.00164313 1e-05
0.000740278 0.0015899 1e-05
0.00084451 0.00153443 1e-05
0.00094762 0.0014769 1e-05
0.00101983 0.00143468 1e-05
0.00102804 0.00142972 1e-05
0.00103624 0.00142475 1e-05
0.00104443 0.00141975 1e-05
0.00105261 0.00141474 1e-05
0.00106088 0.00140966 1e-05
0.00116821 0.00134348 1e-05
0.00127404 0.00127492 1e-05
0.00137827 0.00120396 1e-05
0.00148099 0.00113082 1e-05
0.00159663 0.00104511 1e-05
0.00159681 0.00104497 1e-05
0.00159698 0.00104483 1e-05
0.00159716 0.00104469 1e-05
0.00159734 0.00104455 1e-05
0.00159752 0.00104442 1e-05
0.00169217 0.000970856 1e-05
0.00178541 0.000895532 1e-05
0.00187718 0.000818409 1e-05
0.00196753 0.000739633 1e-05
0.00203791 0.000676366 1e-05
0.002058 0.000657861 1e-05
0.002078 0.000639265 1e-05
0.00209791 0.00062058 1e-05
0.00211777 0.000601832 1e-05
0.00213833 0.0005823 1e-05
0.00219144 0.000531499 1e-05
0.00224406 0.000480181 1e-05
0.00229616 0.000428339 1e-05
0.00234773 0.000375966 1e-05
0.00239401 0.000328255 1e-05
0.00245188 0.000267773 1e-05
0.00250911 0.000206692 1e-05
0.00256571 0.000145027 1e-05
0.0026218 8.28948e-05 1e-05
0.00268334 1.35451e-05 1e-05
0.00268569 1.08361e-05 1e-05
0.00268805 8.12607e-06 1e-05
0.0026904 5.41505e-06 1e-05
0.00269276 2.70303e-06 1e-05
0.0026951 0 1e-05
0.002759 -7.37367e-05 1e-05
0.00282228 -0.000148005 1e-05
0.00288492 -0.000222813 1e-05
0.00294689 -0.000298172 1e-05
0.00300396 -0.000368654 1e-05
0.00304969 -0.000425959 1e-05
0.0030951 -0.000483511 1e-05
0.00314021 -0.000541304 1e-05
0.00318506 -0.000599293 1e-05
0.00323259 -0.000661298 1e-05
0.00325061 -0.000685057 1e-05
0.00326859 -0.000708856 1e-05
0.00328651 -0.000732694 1e-05
0.00330438 -0.000756573 1e-05
0.0033219 -0.000780089 1e-05
0.00339004 -0.000871876 1e-05
0.00345759 -0.000964106 1e-05
0.0035245 -0.00105679 1e-05
0.00359088 -0.00114986 1e-05
0.00365374 -0.00123896 1e-05
0.00368022 -0.00127688 1e-05
0.00370661 -0.00131485 1e-05
0.00373293 -0.00135287 1e-05
0.0037592 -0.00139094 1e-05
0.00378611 -0.00143003 1e-05
0.00383007 -0.00149412 1e-05
0.00387382 -0.00155835 1e-05
0.00391735 -0.00162274 1e-05
0.00396065 -0.00168727 1e-05
0.00400278 -0.00175043 1e-05
0.00407101 -0.0018533 1e-05
0.00413883 -0.00195643 1e-05
0.00420621 -0.00205985 1e-05
0.00427331 -0.00216345 1e-05
0.00434393 -0.00227316 1e-05
0.00434996 -0.00228259 1e-05
0.00435598 -0.00229202 1e-05
0.004362 -0.00230145 1e-05
0.00436802 -0.00231089 1e-05
0.00437402 -0.0023203 1e-05
0.00445487 -0.00244725 1e-05
0.00453527 -0.00257448 1e-05
0.00461527 -0.00270197 1e-05
0.00469491 -0.00282968 1e-05
0.00477279 -0.00295497 1e-05
0.00479945 -0.00299802 1e-05
0.00482608 -0.00304108 1e-05
0.00485269 -0.00308416 1e-05
0.00487929 -0.00312724 1e-05
0.00490609 -0.00317065 1e-05
0.00496671 -0.00326885 1e-05
0.00502718 -0.00336713 1e-05
0.0050875 -0.00346551 1e-05
0.00514769 -0.00356398 1e-05
0.00520733 -0.00366161 1e-05
0.00526039 -0.00374853 1e-05
0.00531341 -0.00383548 1e-05
0.00536638 -0.00392246 1e-05
0.00541939 -0.00400942 1e-05
0.00547262 -0.00409664 1e-05
0.00551559 -0.00416693 1e-05
0.00555852 -0.00423725 1e-05
0.00560142 -0.00430759 1e-05
0.0056443 -0.00437793 1e-05
0.00568711 -0.00444811 1e-05
0.0057584 -0.00456486 1e-05
0.00582974 -0.00468159 1e-05
0.00590112 -0.00479829 1e-05
0.00597264 -0.0049149 1e-05
0.00604356 -0.00503007 1e-05
0.00607981 -0.00508871 1e-05
0.00611607 -0.00514734 1e-05
0.00615234 -0.00520597 1e-05
0.00618863 -0.00526458 1e-05
0.00622503 -0.00532326 1e-05
0.00630381 -0.00545002 1e-05
0.00638278 -0.00557667 1e-05
0.00646195 -0.00570319 1e-05
0.00654139 -0.00582955 1e-05
0.00661893 -0.00595208 1e-05
0.00666283 -0.00602101 1e-05
0.00670679 -0.0060899 1e-05
0.0067508 -0.00615875 1e-05
0.00679489 -0.00622755 1e-05
0.00683937 -0.00629671 1e-05
0.00691125 -0.00640811 1e-05
0.00698338 -0.00651934 1e-05
0.00705578 -0.00663041 1e-05
0.00712846 -0.00674128 1e-05
0.00719878 -0.00684773 1e-05
0.00726948 -0.00695399 1e-05
0.0073404 -0.00706011 1e-05
0.00741155 -0.00716607 1e-05
0.007483 -0.00727182 1e-05
0.00755599 -0.00737909 1e-05
0.00760142 -0.00744538 1e-05
0.00764697 -0.00751157 1e-05
0.00769266 -0.00757768 1e-05
0.00773847 -0.0076437 1e-05
0.00778313 -0.00770772 1e-05
0.00790091 -0.00787568 1e-05
0.00801946 -0.0080431 1e-05
0.00813878 -0.00820997 1e-05
0.0082591 -0.00837612 1e-05
0.00837203 -0.00853003 1e-05
0.00837975 -0.0085404 1e-05
0.00838747 -0.00855077 1e-05
0.00839519 -0.00856114 1e-05
0.00840291 -0.0085715 1e-05
0.00841067 -0.00858189 1e-05
0.00852163 -0.00873051 1e-05
0.00863343 -0.00887851 1e-05
0.00874606 -0.00902587 1e-05
0.00885956 -0.00917257 1e-05
0.00896551 -0.00930765 1e-05
0.00903014 -0.00938898 1e-05
0.00909503 -0.00947011 1e-05
0.00916019 -0.00955102 1e-05
0.00922565 -0.00963169 1e-05
0.00929328 -0.00971439 1e-05
0.00934735 -0.00977997 1e-05
0.00940161 -0.00984538 1e-05
0.00945606 -0.00991064 1e-05
0.00951071 -0.00997573 1e-05
0.0095636 -0.0100383 1e-05
[...]
POINT_DATA 12278
 FIELD attributes 1
U 3 12278 float
9.72339 	0.381311 	0 9.77871 	0.305049 	0 9.83405 	0.228765 	0 9.8894 	0.152465 	0 9.94476 	0.0761532 	0 10 	0 	0
10.0671 	0.375483 	0 10.0537 	0.300387 	0 10.0403 	0.225271 	0 10.0268 	0.150141 	0 10.0134 	0.0750009 	0 10 	0 	0
10.0364 	0.141572 	0 10.0291 	0.113304 	0 10.0218 	0.085089 	0 10.0145 	0.0569263 	0 10.0071 	0.0288164 	0 10 	0 	0
10.0137 	0.111519 	0 10.011 	0.0892151 	0 10.0082 	0.0669108 	0 10.0055 	0.0446062 	0 10.0027 	0.0223012 	0 10 	0 	0
10.0097 	0.0196534 	0 10.0078 	0.0157227 	0 10.0058 	0.011792 	0 10.0039 	0.00786135 	0 10.0019 	0.00393066 	0 10 	0 	0
10.0102 	-0.0372875 	0 10.0082 	-0.02983 	0 10.0061 	-0.0223725 	0 10.0041 	-0.014915 	0 10.002 	-0.00745741 	0 10 	0 	0
10.0174 	-0.148997 	0 10.0139 	-0.119197 	0 10.0105 	-0.0893967 	0 10.007 	-0.0595953 	0 10.0035 	-0.0297932 	0 10 	0 	0
10.0362 	-0.265901 	0 10.029 	-0.212721 	0 10.0217 	-0.159534 	0 10.0145 	-0.106342 	0 10.0072 	-0.053146 	0 10 	0 	0
10.0563 	-0.387167 	0 10.045 	-0.309734 	0 10.0338 	-0.23228 	0 10.0225 	-0.15481 	0 10.0112 	-0.0773281 	0 10 	0 	0
8.30133 	-0.114495 	0 8.4287 	-0.091596 	0 8.55659 	-0.0686962 	0 8.68498 	-0.0457957 	0 8.81385 	-0.0228949 	0 8.94315 	0 	0
9.72339 	0.381311 	0 9.5415 	0.555241 	0 9.39671 	0.663651 	0 9.26203 	0.754272 	0 9.2183 	0.780385 	0 8.95344 	1.27614 	0 8.70578 	1.91036 	0 8.48173 	2.72184 	0 8.46724 	2.67123 	0 8.47252 	2.45986 	0 8.50117 	2.35314 	0 8.52498 	2.2443 	0 8.51221 	2.16311 	0 8.42487 	2.14738 	0 8.30214 	2.12559 	0 8.30117 	1.9821 	0 8.28715 	1.83798 	0 8.21181 	1.72569 	0 8.035 	1.67507 	0 7.86306 	1.62575 	0 7.68323 	1.56759 	0 7.50177 	1.50875 	0 7.42793 	1.45839 	0 7.36148 	1.40771 	0 7.27865 	1.34671 	0 7.22249 	1.32376 	0 7.16614 	1.3007 	0 7.10958 	1.27753 	0 7.07928 	1.2544 	0 7.05291 	1.23121 	0 6.97394 	1.13838 	0 6.88841 	1.05226 	0 6.79883 	0.980329 	0 6.71191 	0.932083 	0 6.6228 	0.883658 	0 6.55089 	0.833774 	0 6.49229 	0.787587 	0 6.44246 	0.743855 	0 6.3887 	0.69909 	0 6.31694 	0.642265 	0 6.31477 	0.64017 	0 6.3132 	0.638345 	0 6.31172 	0.636559 	0 6.31023 	0.63477 	0 6.30868 	0.632931 	0 6.27132 	0.597061 	0 6.23151 	0.560862 	0 6.18922 	0.524331 	0 6.1444 	0.487462 	0 6.10943 	0.456251 	0 6.07602 	0.420968 	0 6.04571 	0.390994 	0 6.01701 	0.364549 	0 5.99443 	0.339599 	0 5.97316 	0.315194 	0 5.95246 	0.28906 	0 5.92972 	0.262717 	0 5.91348 	0.241656 	0 5.9034 	0.222651 	0 5.89182 	0.203584 	0 5.87917 	0.183517 	0 5.86498 	0.16335 	0 5.85627 	0.143785 	0 5.85337 	0.127396 	0 5.8492 	0.11098 	0 5.84297 	0.0943452 	0 5.8355 	0.0776686 	0 5.83342 	0.058966 	0 5.83631 	0.0430916 	0 5.83801 	0.0272177 	0 5.83718 	0.0119197 	0 5.83535 	-0.0034473 	0 5.83922 	-0.0225492 	0 5.84733 	-0.0400413 	0 5.85425 	-0.0574793 	0 5.85861 	-0.0735467 	0 5.86186 	-0.0895882 	0 5.87122 	-0.110977 	0 5.88469 	-0.132515 	0 5.89666 	-0.153983 	0 5.90651 	-0.17335 	0 5.91508 	-0.192647 	0 5.92941 	-0.218107 	0 5.94829 	-0.247064 	0 5.96529 	-0.275881 	0 5.98123 	-0.302114 	0 5.99553 	-0.328198 	0 6.01456 	-0.359813 	0 6.03867 	-0.400978 	0 6.06027 	-0.4419 	0 6.08261 	-0.480365 	0 6.10482 	-0.520989 	0 6.13012 	-0.567647 	0 6.1546 	-0.61972 	0 6.17873 	-0.679533 	0 6.20611 	-0.73853 	0 6.23746 	-0.811924 	0 6.26494 	-0.884781 	0 6.28859 	-0.957101 	0 6.3087 	-1.02981 	0 6.30871 	-1.02985 	0 6.30873 	-1.02991 	0 6.30874 	-1.02997 	0 6.30876 	-1.03002 	0 6.30877 	-1.03008 	0 6.33257 	-1.12727 	0 6.35111 	-1.22236 	0 6.36453 	-1.31537 	0 6.37529 	-1.41407 	0 6.38857 	-1.53828 	0 6.40637 	-1.66403 	0 6.41793 	-1.78768 	0 6.4058 	-1.9302 	2.62097e-20 6.36944 	-2.07917 	5.37303e-20 6.31929 	-2.23395 	8.12321e-20 6.31108 	-2.28439 	2.33979e-20 6.2989 	-2.33171 	5.85242e-21 6.28254 	-2.37572 	3.12752e-20 6.26563 	-2.41948 	5.73181e-20 6.25129 	-2.45516 	7.91915e-20 6.2249 	-2.55103 	1.78965e-19 6.19655 	-2.64634 	2.82902e-19 6.16627 	-2.74107 	3.90973e-19 6.12011 	-2.82222 	2.74339e-19 6.06356 	-2.90257 	6.24896e-20 5.9836 	-3.02224 	4.92736e-20 5.89843 	-3.13893 	3.61875e-20 5.80156 	-3.23677 	8.57273e-21 5.70029 	-3.33268 	-1.80424e-20 5.62542 	-3.39921 	-3.61705e-20 5.61627 	-3.40851 	-3.59625e-20 5.60709 	-3.41781 	-3.57395e-20 5.59783 	-3.42646 	-3.68906e-20 5.58844 	-3.43342 	-4.1699e-20 5.5789 	-3.44045 	-4.65532e-20 5.45901 	-3.53666 	-2.82852e-20 5.33379 	-3.63091 	-9.44426e-21 5.20775 	-3.70786 	1.2796e-22 5.08153 	-3.76676 	-1.81011e-22 4.93257 	-3.83204 	7.72477e-23 4.93231 	-3.83219 	4.4205e-23 4.93204 	-3.83233 	1.11618e-23 4.9318 	-3.83243 	1.9595e-23 4.93157 	-3.83251 	4.91857e-23 4.93134 	-3.83259 	7.87863e-23 4.80564 	-3.88193 	1.1321e-21 4.67584 	-3.92967 	2.48978e-21 4.54893 	-3.96616 	4.21754e-21 4.43131 	-3.98326 	6.34244e-21 4.33599 	-3.99562 	8.21299e-21 4.30565 	-4.00329 	1.33611e-20 4.27508 	-4.01087 	1.85472e-20 4.24977 	-4.01259 	9.22425e-21 4.22458 	-4.01395 	-8.28312e-22 4.19828 	-4.0153 	-1.12511e-20 4.12448 	-4.02261 	-6.3614e-20 4.0495 	-4.0294 	-1.15609e-19 3.97348 	-4.0355 	-1.65792e-19 3.90932 	-4.02997 	-1.0156e-19 3.85052 	-4.02459 	-4.30482e-20 3.77293 	-4.02674 	4.17955e-21 3.69545 	-4.02599 	4.20013e-20 3.62355 	-4.01387 	3.42027e-20 3.55057 	-4.00128 	2.66749e-20 3.46851 	-3.98679 	1.8647e-20 3.46519 	-3.98637 	1.92704e-20 3.46186 	-3.98595 	1.9894e-20 3.45853 	-3.98553 	2.05177e-20 3.45539 	-3.98481 	2.10412e-20 3.45233 	-3.98398 	2.15234e-20 3.3842 	-3.97195 	1.41266e-20 3.31401 	-3.95779 	7.41871e-21 3.24261 	-3.94294 	7.05422e-22 3.17082 	-3.91588 	6.16698e-21 3.10318 	-3.88911 	1.23501e-20 3.06109 	-3.8791 	3.47262e-20 3.01868 	-3.8677 	5.06286e-20 2.97707 	-3.84873 	2.33613e-20 2.93506 	-3.82954 	-3.84908e-21 2.88984 	-3.80884 	-3.27818e-20 2.87173 	-3.80228 	-3.88836e-20 2.85353 	-3.79568 	-4.49876e-20 2.83525 	-3.78903 	-5.10938e-20 2.81705 	-3.77996 	-5.72854e-20 2.79913 	-3.77045 	-6.33957e-20 2.74574 	-3.74939 	-1.07119e-19 2.69151 	-3.72783 	-1.50963e-19 2.63671 	-3.69718 	-1.4619e-19 2.58229 	-3.6598 	-8.81866e-20 2.52977 	-3.62369 	-3.27101e-20 2.51284 	-3.61477 	2.06774e-21 2.49586 	-3.60564 	3.52429e-20 2.47998 	-3.59324 	2.99876e-20 2.46404 	-3.58079 	2.47675e-20 2.44761 	-3.56798 	1.94472e-20 2.41708 	-3.5489 	5.65542e-20 2.38629 	-3.52962 	9.35817e-20 2.35524 	-3.51015 	1.30528e-19 2.32525 	-3.48564 	1.03443e-19 2.29585 	-3.4612 	7.22993e-20 2.25892 	-3.4355 	4.24474e-20 2.22153 	-3.40949 	1.25631e-20 2.18696 	-3.37663 	-2.90436e-21 2.15215 	-3.34342 	-1.81105e-20 2.11502 	-3.30808 	-3.42161e-20 2.11131 	-3.30523 	-3.17956e-20 2.10761 	-3.30237 	-2.93779e-20 2.10389 	-3.29951 	-2.6963e-20 2.1004 	-3.29608 	-3.40052e-20 2.09691 	-3.29265 	-4.13438e-20 2.0602 	-3.26036 	-1.64555e-19 2.02447 	-3.22602 	-2.56542e-19 1.98942 	-3.18992 	-2.99642e-19 1.95719 	-3.14903 	-1.93311e-19 1.92543 	-3.1088 	-8.89808e-20 1.91682 	-3.09911 	-7.78879e-20 1.90819 	-3.08941 	-6.67907e-20 1.90086 	-3.07857 	-5.65177e-20 1.89382 	-3.06746 	-4.64353e-20 1.88673 	-3.05626 	-3.62772e-20 1.8648 	-3.03088 	-1.17415e-20 1.84276 	-3.0054 	1.28156e-20 1.82117 	-2.97924 	2.99883e-20 1.80214 	-2.95027 	1.21556e-20 1.78325 	-2.92153 	-5.51377e-21 1.76986 	-2.90257 	-2.11325e-20 1.75644 	-2.88358 	-3.67394e-20 1.7452 	-2.86329 	-1.81078e-20 1.7349 	-2.84248 	1.47246e-20 1.7246 	-2.82164 	4.76633e-20 1.71227 	-2.80445 	1.21631e-20 1.69992 	-2.78723 	-2.32869e-20 1.68821 	-2.76954 	-3.49025e-20 1.67813 	-2.75069 	1.29707e-20 1.66809 	-2.7319 	6.07127e-20 1.65476 	-2.7077 	1.97471e-19 1.64146 	-2.68352 	3.34169e-19 1.63054 	-2.65857 	2.96366e-19 1.62139 	-2.63314 	1.33615e-19 1.61247 	-2.6081 	-2.78259e-20 1.60467 	-2.59474 	-5.73776e-20 1.59687 	-2.58138 	-8.69373e-20 1.58988 	-2.56768 	-8.97814e-20 1.584 	-2.55352 	-5.62849e-20 1.57814 	-2.53937 	-2.27616e-20 1.56815 	-2.51485 	-2.46235e-20 1.55827 	-2.49043 	-2.65252e-20 1.55033 	-2.46588 	-1.93323e-20 1.5449 	-2.44119 	-5.0328e-22 1.53983 	-2.41738 	1.77448e-20 1.53318 	-2.4029 	2.97187e-20 1.52656 	-2.38843 	4.16878e-20 1.52126 	-2.37374 	4.57188e-20 1.5169 	-2.35891 	4.40953e-20 1.51258 	-2.34404 	4.24418e-20 1.50734 	-2.32431 	2.55656e-20 1.50224 	-2.30469 	8.66371e-21 1.49821 	-2.28528 	-3.1306e-21 1.49686 	-2.26623 	-1.11905e-21 1.49576 	-2.24807 	8.13378e-22 1.48879 	-2.22756 	7.62571e-20 1.48192 	-2.20713 	1.51928e-19 1.47766 	-2.18687 	1.25788e-19 1.47432 	-2.16677 	6.78068e-20 1.4711 	-2.14649 	8.99821e-21 1.4699 	-2.13594 	-2.33579e-20 1.46876 	-2.12546 	-5.56704e-20 1.46787 	-2.11514 	-8.1994e-20 1.4694 	-2.10625 	-3.6481e-20 1.47096 	-2.09768 	7.88467e-21 1.46383 	-2.06747 	4.60794e-21 1.45701 	-2.03754 	1.31344e-21 1.45624 	-2.01097 	-2.34555e-20 1.4568 	-1.98527 	-5.17307e-20 1.45941 	-1.9623 	-7.48579e-20 1.45894 	-1.96033 	-6.85115e-20 1.45847 	-1.95837 	-6.22197e-20 1.45842 	-1.95662 	-6.69701e-20 1.45837 	-1.95486 	-7.17182e-20 1.45833 	-1.9531 	-7.64766e-20 1.45645 	-1.92818 	-2.09484e-19 1.45494 	-1.90356 	-3.41758e-19 1.45417 	-1.87952 	-4.46517e-19 1.45842 	-1.8593 	-1.91163e-19 1.46279 	-1.84094 	4.7081e-20 1.46064 	-1.82603 	1.11179e-19 1.4586 	-1.81122 	1.75058e-19 1.45952 	-1.79854 	1.42348e-19 1.46057 	-1.78595 	1.09738e-19 1.46178 	-1.77313 	7.63086e-20 1.4627 	-1.76356 	6.73855e-20 1.46371 	-1.75407 	5.84843e-20 1.4648 	-1.74464 	4.96054e-20 1.46741 	-1.73646 	5.1677e-20 1.47007 	-1.7287 	5.41923e-20 1.46956 	-1.70543 	2.95032e-20 1.46939 	-1.68245 	4.75224e-21 1.47231 	-1.66189 	2.02284e-20 1.47691 	-1.64243 	4.53134e-20 1.48285 	-1.62533 	6.85434e-20 1.48283 	-1.62125 	6.7424e-20 1.48292 	-1.61725 	6.75883e-20 1.48351 	-1.61363 	7.51523e-20 1.48411 	-1.61002 	8.27142e-20 1.48473 	-1.60637 	9.03645e-20 1.48744 	-1.59064 	1.3973e-19 1.49041 	-1.5751 	1.88973e-19 1.49365 	-1.55976 	2.3809e-19 1.49883 	-1.54627 	1.68528e-19 1.50424 	-1.53409 	8.22648e-20 1.5059 	-1.5146 	1.55638e-19 1.5084 	-1.49583 	2.03746e-19 1.51302 	-1.47901 	1.61888e-19 1.51798 	-1.46244 	1.20562e-19 1.52369 	-1.44495 	7.67705e-20 1.52371 	-1.44488 	7.65387e-20 1.52373 	-1.44482 	7.63069e-20 1.52376 	-1.44476 	7.60752e-20 1.52378 	-1.4447 	7.63832e-20 1.52381 	-1.44465 	7.69278e-20 1.52822 	-1.42762 	1.26509e-19 1.53302 	-1.41087 	1.7455e-19 1.5382 	-1.39439 	2.222e-19 1.54497 	-1.37967 	1.84233e-19 1.55206 	-1.36675 	1.17107e-19 1.5554 	-1.34914 	2.03131e-19 1.55961 	-1.33243 	2.39603e-19 1.56525 	-1.31729 	1.74862e-19 1.57123 	-1.30238 	1.10336e-19 1.57758 	-1.28884 	3.78258e-20 1.57781 	-1.28784 	3.75721e-20 1.57809 	-1.28689 	3.67354e-20 1.57841 	-1.286 	3.51635e-20 1.57873 	-1.28511 	3.35912e-20 1.57906 	-1.28422 	3.20098e-20 1.58428 	-1.27028 	-1.34812e-20 1.58979 	-1.25653 	-5.88932e-20 1.5956 	-1.24299 	-1.04223e-19 1.60231 	-1.23065 	-8.93406e-20 1.60936 	-1.21992 	-3.00634e-20 1.61381 	-1.20441 	-7.5447e-20 1.61857 	-1.18909 	-1.21244e-19 1.62464 	-1.17571 	-1.03833e-19 1.63194 	-1.16306 	-6.09334e-20 1.63997 	-1.15168 	3.29632e-22 1.64226 	-1.14484 	2.8818e-20 1.64487 	-1.13851 	2.83067e-20 1.64774 	-1.13255 	7.12803e-21 1.65066 	-1.12662 	-1.39997e-20 1.6538 	-1.12045 	-3.613e-20 1.65744 	-1.11362 	-6.80366e-20 1.66117 	-1.10685 	-9.98317e-20 1.66498 	-1.10013 	-1.31515e-19 1.66902 	-1.09385 	-1.31076e-19 1.67326 	-1.08837 	-7.98791e-20 1.6784 	-1.07463 	-1.11915e-19 1.68443 	-1.06138 	-1.36104e-19 1.69176 	-1.04897 	-1.45545e-19 1.69995 	-1.03836 	-1.35216e-19 1.70803 	-1.02839 	-1.25228e-19 1.71381 	-1.01489 	-2.75525e-19 1.72007 	-1.00219 	-3.50356e-19 1.72695 	-0.990749 	-2.96285e-19 1.7341 	-0.979469 	-2.42722e-19 1.7424 	-0.969394 	-1.16065e-19 1.7445 	-0.965051 	-8.25015e-20 1.74675 	-0.96116 	-8.4719e-20 1.74907 	-0.957404 	-9.65986e-20 1.75141 	-0.953664 	-1.0843e-19 1.75388 	-0.949781 	-1.20721e-19 1.75874 	-0.942428 	-1.24329e-19 1.76372 	-0.935141 	-1.2791e-19 1.76882 	-0.927921 	-1.31463e-19 1.77406 	-0.920991 	-1.29654e-19 1.7794 	-0.915227 	-1.05273e-19 1.78544 	-0.903295 	-1.32883e-19 1.7925 	-0.891939 	-1.44773e-19 1.80043 	-0.881086 	-1.43545e-19 1.80875 	-0.872018 	-1.02968e-19 1.81703 	-0.863487 	-6.09438e-20 1.82365 	-0.851796 	-1.649e-19 1.83052 	-0.84027 	-2.67003e-19 1.83768 	-0.830577 	-2.25688e-19 1.8459 	-0.821472 	-1.2794e-19 1.85458 	-0.813026 	4.39159e-23 1.86119 	-0.802468 	1.42208e-22 1.86797 	-0.793544 	1.0759e-22 1.87494 	-0.784762 	6.89463e-23 1.8821 	-0.77608 	2.98742e-23 1.89048 	-0.76631 	-1.51025e-23 1.89086 	-0.765894 	7.07836e-22 1.89124 	-0.765479 	1.4303e-21 1.89161 	-0.765064 	2.15229e-21 1.89199 	-0.76465 	2.87381e-21 1.89236 	-0.764316 	4.21236e-22 1.89984 	-0.754862 	-2.52692e-20 1.90763 	-0.745579 	-4.71381e-20 1.91565 	-0.736407 	-6.88287e-20 1.92388 	-0.727356 	-8.98838e-20 1.93179 	-0.720369 	-3.12012e-20 1.93867 	-0.710413 	-2.11309e-20 1.94624 	-0.700896 	-1.39326e-20 1.95462 	-0.691913 	-1.04194e-20 1.96279 	-0.68464 	-1.59873e-20 1.97093 	-0.677772 	-2.24521e-20 1.97825 	-0.668065 	5.39371e-20 1.98578 	-0.65846 	1.30439e-19 1.99321 	-0.650372 	1.32355e-19 2.00152 	-0.643426 	6.57205e-20 2.00986 	-0.636683 	1.6326e-22 2.01757 	-0.627231 	9.71044e-23 2.0251 	-0.618854 	-1.11773e-20 2.03252 	-0.611313 	-3.10225e-20 2.04013 	-0.603851 	-5.0844e-20 2.04859 	-0.597212 	-6.38733e-20 2.0555 	-0.589506 	-1.06451e-19 2.06203 	-0.582995 	-1.10007e-19 2.06869 	-0.576541 	-1.13622e-19 2.0755 	-0.570145 	-1.17297e-19 2.08346 	-0.562863 	-1.21585e-19 2.08423 	-0.562198 	-1.22769e-19 2.08499 	-0.561534 	-1.23951e-19 2.08575 	-0.56087 	-1.25133e-19 2.08652 	-0.560207 	-1.26315e-19 2.08722 	-0.559669 	-1.22308e-19 2.09468 	-0.552368 	-9.43304e-20 2.10237 	-0.545211 	-6.50877e-20 2.11024 	-0.538122 	-3.5883e-20 2.11828 	-0.531102 	-6.71633e-21 2.12555 	-0.525611 	1.79225e-22 2.1327 	-0.517846 	6.74842e-20 2.14053 	-0.510864 	8.63843e-20 2.14854 	-0.503972 	1.03522e-19 2.1562 	-0.497895 	8.4334e-20 2.16321 	-0.492976 	1.49084e-20 2.17059 	-0.485453 	-5.50295e-20 2.1782 	-0.478079 	-1.1872e-19 2.18627 	-0.471438 	-1.34996e-19 2.19319 	-0.466573 	-6.72679e-20 2.20017 	-0.461792 	-7.25112e-23 2.20775 	-0.454512 	-3.9609e-23 2.21551 	-0.44729 	-6.87912e-24 2.22263 	-0.441426 	0 2.22947 	-0.436708 	0 2.23638 	-0.432065 	0 2.24413 	-0.425027 	0 2.2518 	-0.418308 	0 2.2583 	-0.413073 	0 2.265 	-0.408297 	-1.0152e-20 2.2718 	-0.403791 	-2.51733e-20 2.27969 	-0.396993 	-6.23816e-21 2.2866 	-0.391355 	-6.35058e-21 2.2931 	-0.386304 	-1.58163e-20 2.29972 	-0.381319 	-2.67449e-20 2.30639 	-0.376951 	-6.64852e-20 2.3141 	-0.370637 	-2.84722e-20 2.32045 	-0.365736 	-3.02616e-20 2.32692 	-0.360868 	-3.20228e-20 2.33351 	-0.356033 	-3.37561e-20 2.3401 	-0.351516 	-4.647e-20 2.34635 	-0.346652 	-3.69103e-20 2.35196 	-0.342435 	-3.83615e-20 2.35766 	-0.338242 	-3.97912e-20 2.36346 	-0.334074 	-4.11996e-20 2.37031 	-0.329252 	-4.28136e-20 2.37083 	-0.328898 	-4.26958e-20 2.37135 	-0.328543 	-4.25782e-20 2.37187 	-0.32819 	-4.24607e-20 2.37239 	-0.327836 	-4.23433e-20 2.37285 	-0.327536 	-4.25201e-20 2.37901 	-0.322946 	-4.92039e-20 2.38528 	-0.31841 	-5.37531e-20 2.39165 	-0.313902 	-5.82252e-20 2.39813 	-0.309421 	-6.26209e-20 2.40377 	-0.305693 	-3.89663e-20 2.4101 	-0.300977 	-7.5157e-20 2.41626 	-0.296617 	-8.729e-20 2.42253 	-0.292282 	-9.93641e-20 2.4289 	-0.287972 	-1.1138e-19 2.43354 	-0.284985 	-7.13056e-20 2.44012 	-0.280201 	-1.18578e-19 2.44616 	-0.276014 	-1.21105e-19 2.4523 	-0.27185 	-1.23585e-19 2.45819 	-0.267944 	-1.18998e-19 2.46216 	-0.26538 	-7.53445e-20 2.46878 	-0.260764 	-1.17872e-19 2.47494 	-0.256558 	-1.28007e-19 2.48094 	-0.252563 	-1.22402e-19 2.48588 	-0.249301 	-9.4798e-20 2.48962 	-0.246842 	-4.31981e-20 2.4962 	-0.242429 	4.31566e-20 2.50259 	-0.238208 	1.03848e-19 2.50843 	-0.234379 	1.09344e-19 2.51241 	-0.23169 	5.0367e-20 2.5159 	-0.229334 	-2.66964e-20 2.52244 	-0.22512 	-1.75932e-20 2.52909 	-0.220924 	-8.49996e-21 2.5346 	-0.21734 	8.6689e-21 2.53778 	-0.215072 	2.59567e-20 2.54101 	-0.212818 	4.32194e-20 2.54749 	-0.208799 	-4.33223e-20 2.55407 	-0.204797 	-1.29877e-19 2.55906 	-0.201575 	-1.41241e-19 2.56198 	-0.199408 	-7.10819e-20 2.56495 	-0.197252 	-1.02111e-21 2.57136 	-0.193425 	-1.0751e-22 2.57786 	-0.189612 	7.8529e-22 2.58237 	-0.186726 	-1.56705e-20 2.58502 	-0.184658 	-4.9416e-20 2.58773 	-0.182599 	-8.31366e-20 2.59405 	-0.178958 	-4.7682e-20 2.60046 	-0.175331 	-1.22431e-20 2.60453 	-0.172754 	-8.54637e-21 2.60692 	-0.170782 	-2.59295e-20 2.60936 	-0.168817 	-4.32968e-20 2.61557 	-0.165359 	-2.59868e-20 2.62187 	-0.161915 	-8.7096e-21 2.62548 	-0.159638 	-9.45403e-21 2.62768 	-0.157741 	-2.60529e-20 2.62985 	-0.155869 	-4.33778e-20 2.63596 	-0.152589 	-1.64882e-19 2.6416 	-0.149534 	-2.61786e-19 2.64505 	-0.147375 	-2.57095e-19 2.64731 	-0.145496 	-1.64743e-19 2.64921 	-0.143715 	-4.33583e-20 2.65521 	-0.140608 	-2.59808e-20 2.66021 	-0.137901 	-8.62086e-21 2.66349 	-0.135857 	8.70864e-21 2.66584 	-0.13401 	2.13073e-20 2.66748 	-0.132317 	3.02491e-20 2.67335 	-0.129379 	9.13158e-20 2.67774 	-0.126981 	1.18689e-19 2.68086 	-0.125049 	1.17015e-19 2.6833 	-0.123246 	9.21077e-20 2.68467 	-0.121639 	3.16731e-20 2.69041 	-0.118864 	2.32314e-20 2.69422 	-0.116742 	1.48059e-20 2.69717 	-0.114918 	6.38542e-21 2.6997 	-0.113168 	0 2.70082 	-0.111646 	0 2.70642 	-0.109029 	0 2.70967 	-0.107151 	1.47191e-20 2.71245 	-0.105431 	3.2549e-20 2.71507 	-0.103743 	5.03638e-20 2.71594 	-0.102302 	6.81053e-20 2.72142 	-0.0998389 	1.90099e-19 2.72413 	-0.0981763 	1.93614e-19 2.72675 	-0.0965579 	1.91087e-19 2.72941 	-0.0949427 	1.8861e-19 2.73008 	-0.0935752 	7.02121e-20 2.73522 	-0.0913122 	5.31984e-20 2.73764 	-0.0897884 	3.62379e-20 2.74009 	-0.0882675 	1.92692e-20 2.74259 	-0.0867493 	2.29236e-21 2.74327 	-0.0854332 	1.46987e-20 2.74796 	-0.083387 	-4.34244e-24 2.75021 	-0.0819575 	-2.98878e-23 2.75251 	-0.0805304 	-5.54229e-23 2.75485 	-0.0791057 	-8.09479e-23 2.75553 	-0.0778453 	6.38928e-21 2.7598 	-0.0759941 	-5.08078e-20 2.7619 	-0.0746553 	-4.95086e-20 2.76404 	-0.0733185 	-4.82369e-20 2.76622 	-0.0719838 	-4.69926e-20 2.76691 	-0.070782 	-5.64388e-21 2.77078 	-0.0691064 	8.5594e-23 2.77274 	-0.0678546 	6.04884e-23 2.77473 	-0.0666046 	3.53731e-23 2.77676 	-0.0653564 	1.0248e-23 2.77744 	-0.0642154 	0 2.78095 	-0.0626977 	1.119e-20 2.78276 	-0.0615294 	3.75127e-20 2.78461 	-0.0603626 	6.38267e-20 2.78649 	-0.0591973 	9.0132e-20 2.78716 	-0.0581182 	1.07494e-19 2.79033 	-0.0567428 	1.73095e-19 2.792 	-0.0556544 	1.72016e-19 2.79371 	-0.0545673 	1.70966e-19 2.79545 	-0.0534815 	1.69943e-19 2.79611 	-0.0524648 	1.02484e-19 2.79896 	-0.0512176 	8.75789e-20 2.80051 	-0.0502056 	5.31462e-20 2.80208 	-0.0491947 	1.87081e-20 2.80368 	-0.0481849 	-1.57355e-20 2.80432 	-0.0472304 	-4.6689e-20 2.80689 	-0.0460989 	-9.02077e-20 2.80831 	-0.0451598 	-8.89998e-20 2.80975 	-0.0442216 	-8.78257e-20 2.81122 	-0.0432843 	-8.66854e-20 2.81183 	-0.0423913 	-3.70494e-20 2.81415 	-0.0413643 	-4.95339e-20 2.81544 	-0.0404947 	-3.17136e-20 2.81676 	-0.0396257 	-1.39112e-20 2.81811 	-0.0387576 	3.87333e-21 2.81868 	-0.0379249 	4.31029e-20 2.82077 	-0.0369925 	4.98615e-20 2.82195 	-0.0361889 	6.73321e-20 2.82315 	-0.0353859 	8.47944e-20 2.82438 	-0.0345835 	1.02248e-19 2.82492 	-0.0338096 	1.22063e-19 2.82679 	-0.032963 	1.46224e-19 2.82786 	-0.032222 	1.37002e-19 2.82896 	-0.0314816 	1.27801e-19 2.83007 	-0.0307417 	1.18621e-19 2.83056 	-0.0300247 	8.16868e-20 2.83225 	-0.029256 	5.80635e-20 2.83322 	-0.0285744 	3.23159e-20 2.83421 	-0.0278933 	6.56649e-21 2.83522 	-0.0272126 	-1.91848e-20 2.83566 	-0.0265505 	-4.10455e-20 2.83718 	-0.0258526 	-5.61629e-20 2.83805 	-0.0252272 	-3.83894e-20 2.83894 	-0.0246022 	-2.0642e-20 2.83986 	-0.0239775 	-2.92065e-21 2.84024 	-0.023368 	4.84817e-20 2.84161 	-0.0227348 	1.02317e-19 2.8424 	-0.0221624 	1.09998e-19 2.8432 	-0.0215903 	1.17722e-19 2.84402 	-0.0210185 	1.25489e-19 2.84433 	-0.0204593 	8.86198e-20 2.84559 	-0.0198851 	7.17972e-20 2.84628 	-0.0193626 	6.32536e-20 2.847 	-0.0188404 	5.4706e-20 2.84773 	-0.0183184 	4.61543e-20 2.84798 	-0.017807 	3.76051e-20 2.84913 	-0.0172868 	1.44068e-20 2.84975 	-0.0168113 	1.47543e-20 2.85038 	-0.016336 	1.50792e-20 2.85104 	-0.0158609 	1.53815e-20 2.85122 	-0.0153948 	4.14734e-20 2.85227 	-0.0149241 	3.98566e-20 2.85282 	-