# vtk DataFile Version 2.0
track0
ASCII
DATASET POLYDATA
POINTS 12278 float
-0.0205 0.001 1e-05
-0.02052 0.000999216 1e-05
-0.02054 0.000998592 1e-05
-0.02056 0.000998126 1e-05
-0.02058 0.000997818 1e-05
-0.0206 0.000997665 1e-05
-0.0205 0.00367778 1e-05
-0.02052 0.00367703 1e-05
-0.02054 0.00367643 1e-05
-0.02056 0.00367599 1e-05
-0.02058 0.00367569 1e-05
-0.0206 0.00367554 1e-05
-0.0205 0.00635556 1e-05
-0.02052 0.00635527 1e-05
-0.02054 0.00635505 1e-05
-0.02056 0.00635488 1e-05
-0.02058 0.00635476 1e-05
-0.0206 0.00635471 1e-05
-0.0205 0.00903333 1e-05
-0.02052 0.00903311 1e-05
-0.02054 0.00903293 1e-05
-0.02056 0.0090328 1e-05
-0.02058 0.00903271 1e-05
-0.0206 0.00903266 1e-05
-0.0205 0.0117111 1e-05
-0.02052 0.0117111 1e-05
-0.02054 0.011711 1e-05
-0.02056 0.011711 1e-05
-0.02058 0.011711 1e-05
-0.0206 0.011711 1e-05
-0.0205 0.0143889 1e-05
-0.02052 0.014389 1e-05
-0.02054 0.014389 1e-05
-0.02056 0.0143891 1e-05
-0.02058 0.0143891 1e-05
-0.0206 0.0143891 1e-05
-0.0205 0.0170667 1e-05
-0.02052 0.017067 1e-05
-0.02054 0.0170672 1e-05
-0.02056 0.0170674 1e-05
-0.02058 0.0170675 1e-05
-0.0206 0.0170676 1e-05
-0.0205 0.0197444 1e-05
-0.02052 0.019745 1e-05
-0.02054 0.0197454 1e-05
-0.02056 0.0197457 1e-05
-0.02058 0.0197459 1e-05
-0.0206 0.019746 1e-05
-0.0205 0.0224222 1e-05
-0.02052 0.022423 1e-05
-0.02054 0.0224236 1e-05
-0.02056 0.0224241 1e-05
-0.02058 0.0224244 1e-05
-0.0206 0.0224245 1e-05
-0.0205 0.0251 1e-05
-0.02052 0.0251003 1e-05
-0.02054 0.0251005 1e-05
-0.02056 0.0251007 1e-05
-0.02058 0.0251008 1e-05
-0.0206 0.0251008 1e-05
-0.0205 0.001 1e-05
-0.0203632 0.00100536 1e-05
-0.0202266 0.00101331 1e-05
-0.0200901 0.00102296 1e-05
-0.0200427 0.00102682 1e-05
-0.0198376 0.00104418 1e-05
-0.0196338 0.00107322 1e-05
-0.0194327 0.00111734 1e-05
-0.0192368 0.00118024 1e-05
-0.0190172 0.00124951 1e-05
-0.0189002 0.00128348 1e-05
-0.0187827 0.00131598 1e-05
-0.0186649 0.001347 1e-05
-0.0185469 0.001377 1e-05
-0.0183807 0.00141936 1e-05
-0.0182041 0.00146458 1e-05
-0.0180267 0.00150692 1e-05
-0.0178487 0.0015464 1e-05
-0.0176703 0.00158389 1e-05
-0.0174976 0.0016199 1e-05
-0.0172846 0.00166393 1e-05
-0.0170715 0.00170741 1e-05
-0.0168583 0.00175029 1e-05
-0.0166449 0.00179219 1e-05
-0.0163945 0.00184007 1e-05
-0.0163233 0.00185323 1e-05
-0.0162521 0.00186628 1e-05
-0.0161809 0.00187921 1e-05
-0.0161097 0.001892 1e-05
-0.0160387 0.00190459 1e-05
-0.0157586 0.00195349 1e-05
-0.0154779 0.0019993 1e-05
-0.0151968 0.00204224 1e-05
-0.0149154 0.00208282 1e-05
-0.0146381 0.00212132 1e-05
-0.0143838 0.00215525 1e-05
-0.0141293 0.00218765 1e-05
-0.0138746 0.00221854 1e-05
-0.0136197 0.00224797 1e-05
-0.0132934 0.00228367 1e-05
-0.0132791 0.00228513 1e-05
-0.0132647 0.00228659 1e-05
-0.0132503 0.00228804 1e-05
-0.0132359 0.00228949 1e-05
-0.0132211 0.00229098 1e-05
-0.0129774 0.00231543 1e-05
-0.0127336 0.00233864 1e-05
-0.0124896 0.0023606 1e-05
-0.0122455 0.00238128 1e-05
-0.0120025 0.00240056 1e-05
-0.0117547 0.00241907 1e-05
-0.0115067 0.00243625 1e-05
-0.0112587 0.00245229 1e-05
-0.0110106 0.00246733 1e-05
-0.0107632 0.00248135 1e-05
-0.0105252 0.00249391 1e-05
-0.0102872 0.00250547 1e-05
-0.0100491 0.00251602 1e-05
-0.00981105 0.00252576 1e-05
-0.00957337 0.00253473 1e-05
-0.00934491 0.00254263 1e-05
-0.00911643 0.00254977 1e-05
-0.00888792 0.00255614 1e-05
-0.0086594 0.00256176 1e-05
-0.00843108 0.00256674 1e-05
-0.00821175 0.00257091 1e-05
-0.00799241 0.00257446 1e-05
-0.00777306 0.00257739 1e-05
-0.0075537 0.00257962 1e-05
-0.00733443 0.00258125 1e-05
-0.00712387 0.00258225 1e-05
-0.0069133 0.00258269 1e-05
-0.00670273 0.00258258 1e-05
-0.00649216 0.00258179 1e-05
-0.0062816 0.00258036 1e-05
-0.00607944 0.00257839 1e-05
-0.0058773 0.00257588 1e-05
-0.00567516 0.00257281 1e-05
-0.00547303 0.00256901 1e-05
-0.00527083 0.00256448 1e-05
-0.00507675 0.00255943 1e-05
-0.00488269 0.00255376 1e-05
-0.00468865 0.00254746 1e-05
-0.00449464 0.00254035 1e-05
-0.00430044 0.00253232 1e-05
-0.00411412 0.00252373 1e-05
-0.00392784 0.00251435 1e-05
-0.00374159 0.00250418 1e-05
-0.0035554 0.00249307 1e-05
-0.00336883 0.00248072 1e-05
-0.00318995 0.00246771 1e-05
-0.00301115 0.00245362 1e-05
-0.00283245 0.00243841 1e-05
-0.00265386 0.00242191 1e-05
-0.00247443 0.00240388 1e-05
-0.0023027 0.00238503 1e-05
-0.00213114 0.00236466 1e-05
-0.00195982 0.0023424 1e-05
-0.00178875 0.00231829 1e-05
-0.00161577 0.00229201 1e-05
-0.0016145 0.00229181 1e-05
-0.00161323 0.0022916 1e-05
-0.00161195 0.00229139 1e-05
-0.00161068 0.00229118 1e-05
-0.00160942 0.00229098 1e-05
-0.00144582 0.00226421 1e-05
-0.00128262 0.00223513 1e-05
-0.00111983 0.00220379 1e-05
-0.000957484 0.00217025 1e-05
-0.000791418 0.00213344 1e-05
-0.000633135 0.00209538 1e-05
-0.000475555 0.0020545 1e-05
-0.000318716 0.00201087 1e-05
-0.000162825 0.00196396 1e-05
0 0.00191087 1e-05
3.81099e-05 0.00189741 1e-05
7.61158e-05 0.00188367 1e-05
0.000114019 0.00186964 1e-05
0.000151821 0.00185534 1e-05
0.000182616 0.00184344 1e-05
0.00025177 0.00181626 1e-05
0.000320522 0.00178807 1e-05
0.000388856 0.00175889 1e-05
0.00045676 0.00172871 1e-05
0.000528387 0.00169571 1e-05
0.000634886 0.00164479 1e-05
0.00074028 0.00159161 1e-05
0.000844513 0.0015362 1e-05
0.000947627 0.00147873 1e-05
0.00102297 0.00143473 1e-05
0.00103055 0.00143015 1e-05
0.00103812 0.00142555 1e-05
0.00104569 0.00142094 1e-05
0.00105325 0.00141631 1e-05
0.00106088 0.00141163 1e-05
0.00116821 0.00134552 1e-05
0.00127404 0.00127703 1e-05
0.00137828 0.00120615 1e-05
0.001481 0.00113309 1e-05
0.00159752 0.0010468 1e-05
0.00159795 0.00104647 1e-05
0.00159837 0.00104614 1e-05
0.0015988 0.00104581 1e-05
0.00159923 0.00104547 1e-05
0.00159966 0.00104514 1e-05
0.0016945 0.000971443 1e-05
0.00178794 0.000895966 1e-05
0.00187989 0.000818682 1e-05
0.00197042 0.00073974 1e-05
0.00204088 0.000676389 1e-05
0.00206037 0.000658424 1e-05
0.00207978 0.000640374 1e-05
0.00209911 0.00062224 1e-05
0.00211839 0.000604046 1e-05
0.00213833 0.000585112 1e-05
0.00219207 0.000533751 1e-05
0.00224529 0.00048186 1e-05
0.00229799 0.000429433 1e-05
0.00235015 0.000376462 1e-05
0.00239689 0.000328266 1e-05
0.00245418 0.000268358 1e-05
0.00251084 0.000207861 1e-05
0.00256689 0.00014679 1e-05
0.00262244 8.52598e-05 1e-05
0.00268334 1.66311e-05 1e-05
0.00268623 1.33049e-05 1e-05
0.00268912 9.97713e-06 1e-05
0.00269202 6.6479e-06 1e-05
0.00269491 3.31716e-06 1e-05
0.00269778 0 1e-05
0.00276163 -7.37381e-05 1e-05
0.00282486 -0.00014801 1e-05
0.00288745 -0.000222824 1e-05
0.00294937 -0.000298192 1e-05
0.00300638 -0.00036866 1e-05
0.00305162 -0.000425423 1e-05
0.00309655 -0.000482428 1e-05
0.00314119 -0.000539672 1e-05
0.00318557 -0.000597108 1e-05
0.00323259 -0.000658512 1e-05
0.00325102 -0.00068283 1e-05
0.0032694 -0.000707191 1e-05
0.00328772 -0.000731593 1e-05
0.00330599 -0.000756037 1e-05
0.0033239 -0.0007801 1e-05
0.00339193 -0.000871887 1e-05
0.00345936 -0.00096412 1e-05
0.00352615 -0.00105681 1e-05
0.0035924 -0.00114989 1e-05
0.00365512 -0.00123897 1e-05
0.00368132 -0.00127658 1e-05
0.00370744 -0.00131424 1e-05
0.00373349 -0.00135195 1e-05
0.00375948 -0.0013897 1e-05
0.00378611 -0.00142849 1e-05
0.00383018 -0.00149288 1e-05
0.00387403 -0.00155743 1e-05
0.00391766 -0.00162213 1e-05
0.00396105 -0.00168698 1e-05
0.00400326 -0.00175044 1e-05
0.00407139 -0.00185347 1e-05
0.0041391 -0.00195678 1e-05
0.00420638 -0.00206038 1e-05
0.00427336 -0.00216416 1e-05
0.00434393 -0.00227421 1e-05
0.0043498 -0.00228343 1e-05
0.00435566 -0.00229265 1e-05
0.00436153 -0.00230187 1e-05
0.00436738 -0.00231109 1e-05
0.00437322 -0.00232029 1e-05
0.00445375 -0.00244724 1e-05
0.00453382 -0.00257447 1e-05
0.00461348 -0.00270196 1e-05
0.00469277 -0.00282968 1e-05
0.00477025 -0.00295494 1e-05
0.00479742 -0.00299903 1e-05
0.00482456 -0.00304313 1e-05
0.00485167 -0.00308725 1e-05
0.00487877 -0.00313138 1e-05
0.00490609 -0.00317587 1e-05
0.00496573 -0.00327301 1e-05
0.00502522 -0.00337024 1e-05
0.00508456 -0.00346756 1e-05
0.00514376 -0.00356497 1e-05
0.00520239 -0.00366153 1e-05
0.00525644 -0.00375062 1e-05
0.00531044 -0.00383974 1e-05
0.00536439 -0.00392889 1e-05
0.00541836 -0.00401803 1e-05
0.00547262 -0.00410753 1e-05
0.00551396 -0.00417562 1e-05
0.00555526 -0.00424374 1e-05
0.00559653 -0.00431187 1e-05
0.00563777 -0.00438002 1e-05
0.00567894 -0.00444799 1e-05
0.00575186 -0.0045683 1e-05
0.00582483 -0.00468858 1e-05
0.00589783 -0.00480884 1e-05
0.00597097 -0.00492902 1e-05
0.00604356 -0.00504783 1e-05
0.00607732 -0.00510287 1e-05
0.0061111 -0.00515792 1e-05
0.00614487 -0.00521296 1e-05
0.00617867 -0.00526799 1e-05
0.00621255 -0.00532306 1e-05
0.00629383 -0.00545496 1e-05
0.0063753 -0.00558674 1e-05
0.00645697 -0.0057184 1e-05
0.00653893 -0.00584988 1e-05
0.00661893 -0.00597736 1e-05
0.00665924 -0.00604117 1e-05
0.0066996 -0.00610496 1e-05
0.00674 -0.00616871 1e-05
0.00678046 -0.00623243 1e-05
0.00682124 -0.00629643 1e-05
0.00689675 -0.00641457 1e-05
0.00697253 -0.00653254 1e-05
0.0070486 -0.00665032 1e-05
0.00712499 -0.00676789 1e-05
0.00719878 -0.00688056 1e-05
0.00726452 -0.00698018 1e-05
0.00733046 -0.00707968 1e-05
0.00739658 -0.00717904 1e-05
0.00746298 -0.00727823 1e-05
0.00753068 -0.00737871 1e-05
0.00758117 -0.00745315 1e-05
0.00763182 -0.00752748 1e-05
0.00768263 -0.0076017 1e-05
0.0077336 -0.00767581 1e-05
0.00778313 -0.0077474 1e-05
0.00789919 -0.00791417 1e-05
0.00801599 -0.00808041 1e-05
0.00813356 -0.00824612 1e-05
0.00825213 -0.00841111 1e-05
0.00837203 -0.00857577 1e-05
0.00837287 -0.0085769 1e-05
0.0083737 -0.00857803 1e-05
0.00837454 -0.00857916 1e-05
0.00837537 -0.00858029 1e-05
0.0083762 -0.00858142 1e-05
0.00849406 -0.00874102 1e-05
0.00861287 -0.00889992 1e-05
0.00873264 -0.00905809 1e-05
0.00885341 -0.00921551 1e-05
0.00896551 -0.00935947 1e-05
0.00902146 -0.00943033 1e-05
0.00907761 -0.00950103 1e-05
0.00913397 -0.00957157 1e-05
0.00919055 -0.00964192 1e-05
0.00924877 -0.00971382 1e-05
0.00931174 -0.00979103 1e-05
0.00937497 -0.00986802 1e-05
0.00943848 -0.00994479 1e-05
0.00950226 -0.0100213 1e-05
0.0095636 -0.0100944 1e-05
[...]
POINT_DATA 12278
 FIELD attributes 2
p 1 12278 float
177100 177182 177255 177318 177372 177416
109034 109052 109068 109082 109094 109105
87840.5 87850.1 87859.5 87868.6 87877.6 87886
80023.3 80029.6 80035.8 80041.9 80048 80054
77232.9 77242.1 77251.3 77260.5 77269.7 77278.9
77650.7 77664.3 77677.8 77691.4 77704.9 77718.5
81184.3 81196.7 81209 81221.1 81233 81244.7
91011.1 91030.9 91049.9 91068.2 91085.8 91102.6
117443 117476 117506 117535 117561 117584
215562 215372 215180 214986 214790 214592
177100 173495 169168 164589 162923 158991 155609 152958 144793 134752 129309 123880 119942 119331 118479 112434 106534 102413 101518 100651 99668.4 98686.2 97259.4 95791.1 94075.3 93708.9 93341.9 92974.4 92493.5 91995.8 90076.2 88272.3 86758.2 85970.8 85194 84508.1 83843.2 83193.2 82541.3 81707.7 81672.6 81643.6 81615.5 81587.4 81558.5 81025.7 80493.4 79961.7 79430.4 79005.3 78579 78169.7 77772 77396.3 77030.2 76680.2 76329.8 76005.9 75704.4 75403.2 75113.6 74823.9 74545.2 74282.3 74019.6 73765.8 73511.9 73261.8 73025.5 72789.3 72560.2 72331.2 72100.6 71880.9 71661.6 71447.8 71234.2 71015.4 70804.4 70593.6 70386.4 70179.3 69966.2 69753.6 69541.4 69329.3 69117.8 68902.4 68674.3 68446.6 68213.6 67978 67733.8 67481 67215 66935 66621.3 66309.2 65998.7 65685.4 65682.7 65679.3 65676 65672.6 65669.3 65281.1 64898.6 64521.6 64126.4 63650 63134.8 62625.4 61927.4 61154.9 60342.9 60089.9 59847.3 59615.9 59385.1 59197 58646.4 58093.6 57538.7 57070.8 56607.9 56004.1 55401.4 54862.3 54321.9 53921.6 53867.8 53814.1 53763 53718.9 53674.4 53122.1 52562.7 52044.3 51572.8 51024.3 51022.4 51020.5 51018.8 51017.3 51015.7 50588.5 50153.5 49751.8 49415.9 49146.7 49050.4 48953.7 48884.9 48817.3 48746.9 48556.5 48363.8 48169.2 48023.2 47889.8 47718.7 47551.7 47413.3 47272.9 47115.2 47107.3 47099.5 47091.7 47084.6 47077.9 46973.4 46861 46746 46632.7 46525.6 46490.1 46453.5 46414.1 46373.9 46330.4 46309.7 46288.9 46268 46246.2 46224.6 46198.8 46171.7 46134.5 46091.7 46049.8 46052 46053.9 46053 46052 46050.8 46039.2 46027.1 46014.6 45999.2 45983.6 45992.9 46001.4 46005.4 46008.8 46011.9 46011 46010.1 46009.2 46008.2 46007.1 46019.9 46032.9 46044.8 46054.8 46064.4 46074.6 46084.9 46094.6 46104.3 46114 46124.9 46135.6 46146.2 46156.6 46166.8 46185.2 46203.5 46221.9 46240.3 46258.9 46266.8 46274.7 46282.7 46291.1 46299.6 46322.3 46345 46368.4 46392.3 46416.1 46422.7 46429.4 46436.4 46443.8 46451.3 46474.7 46498.2 46522.6 46548.2 46573.2 46581.1 46589.1 46597.7 46606.8 46616 46636.3 46656.6 46677.6 46700.2 46722.1 46734.7 46747.3 46761.6 46776.4 46791.6 46804.1 46816.8 46829.6 46843.4 46857 46878.1 46899.5 46924.3 46949.7 46975.6 46975.7 46975.9 46976 46976.2 46976.3 46998.3 47020.6 47043.4 47068.4 47091.8 47099.8 47108 47117.3 47126.7 47136.4 47147.5 47158.7 47169.9 47181.9 47193.5 47210.4 47227.5 47246.4 47265.6 47284.3 47285.5 47286.8 47288.2 47289.6 47291.1 47306.7 47322.5 47338.5 47355.7 47371.9 47384 47396.5 47410.1 47423.8 47438.6 47440.4 47442.2 47444.1 47446 47447.9 47461.8 47476.3 47490.9 47506.9 47521.9 47532.7 47543.9 47556.1 47568.3 47581.6 47582.5 47583.5 47584.4 47585.3 47586.3 47598.4 47610.8 47623.3 47636.6 47649.7 47659.8 47670.1 47681.6 47693.3 47705.1 47707.8 47710.8 47713.9 47717.1 47720.3 47727.6 47734.9 47742.2 47749.9 47757.8 47766.4 47775 47784.8 47795.5 47805.7 47813.2 47821.3 47830.1 47838.8 47847.5 47848.5 47849.8 47851 47852.3 47853.6 47860.1 47866.7 47873.2 47879.9 47887.2 47893.2 47899.3 47906.2 47914.1 47921.7 47926.6 47931.6 47937.6 47943.9 47950.4 47953.2 47956.8 47960.4 47964.1 47968.1 47969.2 47970.4 47971.5 47972.6 47974 47977.7 47981.6 47985.5 47989.6 47994.4 47996.5 47998.7 48001.4 48005.2 48008.8 48009.7 48010.6 48012.3 48014.8 48017.2 48016.9 48017.3 48017.9 48018.5 48019.6 48018.7 48018.3 48017.9 48017.5 48017.1 48016.9 48016.8 48016.6 48016.5 48016.5 48014.8 48013.2 48011.6 48009.9 48009 48005.5 48002.6 47999.7 47997.3 47995.2 47990.6 47985.9 47982 47978.7 47975.3 47969.6 47963.7 47958.5 47954 47949.4 47942.5 47935.7 47929.4 47923.3 47917.6 47909.6 47901.9 47894.4 47886.9 47879.9 47870.9 47862.3 47853.7 47845 47836.6 47829.8 47823.1 47816.5 47809.8 47802.2 47799.4 47796.5 47793.6 47790.7 47787.9 47777.1 47766.4 47755.7 47745 47734.4 47722.3 47710.6 47698.8 47687.1 47675.5 47662.3 47649.5 47636.8 47624 47611.5 47597.3 47583.4 47569.7 47556 47542.5 47527.4 47512.4 47497.8 47483.2 47468.7 47452.7 47436.8 47421.2 47405.8 47390.4 47373.6 47356.8 47340.3 47324 47307.7 47290.1 47272.5 47255.1 47238 47220.8 47202.5 47184.2 47165.9 47148 47130 47111 47092 47072.9 47054.2 47035.5 47015.8 46996.1 46976.3 46956.8 46937.4 46917.1 46896.7 46876.3 46856.1 46836 46815.1 46794.1 46773 46752.1 46731.4 46709.9 46688.3 46666.7 46645.1 46623.8 46601.8 46579.6 46557.5 46535.3 46513.4 46490.9 46468.2 46445.5 46422.8 46400.3 46377.3 46354.2 46331 46307.8 46284.8 46261.3 46237.7 46214.1 46190.5 46167 46143.1 46119 46094.9 46070.9 46046.9 46022.6 45998.1 45973.7 45949.2 45924.9 45900.1 45875.3 45850.5 45825.6 45800.9 45775.8 45750.6 45725.4 45700.2 45675 45649.6 45624.1 45598.5 45573 45547.5 45521.8 45495.9 45470.1 45444.2 45418.4 45392.4 45366.2 45340.1 45314 45287.8 45261.5 45235.1 45208.7 45182.2 45155.8 45129.2 45102.5 45075.8 45049.2 45022.5 44995.6 44968.7 44941.8 44914.8 44887.9 44860.8 44833.6 44806.4 44779.3 44752.1 44724.7 44697.4 44670 44642.6 44615.2 44587.6 44560 44532.4 44504.8 44477.2 44449.4 44421.6 44393.7 44365.9 44338.1 44310.1 44282.1 44254.1 44226.1 44198 44169.9 44141.7 44113.4 44085.2 44057 44028.7 44000.3 43971.9 43943.5 43915.1 43886.5 43857.9 43829.4 43800.8 43772.2 43743.5 43714.7 43685.9 43657.2 43628.4 43599.5 43570.6 43541.7 43512.7 43483.8 43454.7 43425.6 43396.5 43367.4 43338.3 43309 43279.8 43250.5 43221.2 43191.9 43162.5 43133 43103.6 43074.2 43044.7 43015.1 42985.5 42955.9 42926.3 42896.6 42866.9 42837.1 42807.3 42777.5 42747.7 42717.8 42687.8 42657.9 42627.9 42597.9 42567.8 42537.7 42507.6 42477.4 42447.3 42417 42386.7 42356.4 42326.1 42295.8 42265.3 42234.9 42204.4 42173.9 42143.4 42112.8 42082.1 42051.5 42020.8 41990.1 41959.3 41928.5 41897.6 41866.8 41835.9 41805 41773.9 41742.9 41711.9 41680.8 41649.7 41618.5 41587.3 41556.1 41524.8 41493.5 41462.1 41430.7 41399.3 41367.8 41336.3 41304.7 41273.1 41241.5 41209.9 41178.2 41146.4 41114.6 41082.8 41051 41019 40987 40955.1 40923.1 40891 40858.9 40826.7 40794.5 40762.3 40730.1 40697.7 40665.3 40632.9 40600.5 40568.1 40535.5 40502.9 40470.3 40437.7 40405.1 40372.3 40339.5 40306.6 40273.8 40240.9 40207.9 40174.9 40141.9 40108.8 40075.7 40042.5 40009.2 39976 39942.7 39909.4 39875.9 39842.5 39809 39775.5 39741.9 39708.2 39674.5 39640.8 39607.1 39573.3 39539.4 39505.4 39471.5 39437.5 39403.5 39369.4 39335.2 39301 39266.8 39232.5 39198.1 39163.7 39129.2 39094.8 39060.3 39025.7 38991 38956.3 38921.6 38886.9 38852 38817.1 38782.1 38747.2 38712.2 38677.1 38641.9 38606.7 38571.5 38536.2 38500.8 38465.4 38430 38394.5 38359 38323.3 38287.6 38251.9 38216.2 38180.4 38144.5 38108.6 38072.6 38036.6 38000.6 37964.4 37928.2 37891.9 37855.7 37819.4 37782.9 37746.4 37709.9 37673.4 37636.8 37600.1 37563.3 37526.6 37489.8 37452.9 37415.9 37378.9 37341.8 37304.7 37267.6 37230.3 37193 37155.7 37118.3 37080.9 37043.3 37005.7 36968.1 36930.5 36892.8 36854.9 36817 36779.1 36741.2 36703.2 36665.1 36626.9 36588.7 36550.5 36512.2 36473.8 36435.3 36396.8 36358.3 36319.7 36281 36242.3 36203.5 36164.6 36125.8 36086.8 36047.7 36008.6 35969.5 35930.3 35891 35851.7 35812.3 35772.9 35733.4 35693.8 35654.1 35614.4 35574.7 35534.9 35495 35455 35415 35375 35334.9 35294.7 35254.4 35214.1 35173.8 35133.4 35092.8 35052.2 35011.6 34971 34930.2 34889.4 34848.5 34807.6 34766.6 34725.6 34684.4 34643.2 34601.9 34560.6 34519.3 34477.8 34436.3 34394.7 34353.1 34311.4 34269.6 34227.7 34185.8 34143.9 34101.9 34059.8 34017.6 33975.4 33933.1 33890.8 33848.3 33805.8 33763.3 33720.6 33678 33635.2 33592.4 33549.5 33506.5 33463.6 33420.4 33377.3 33334.1 33290.8 33247.5 33204 33160.5 33117 33073.3 33029.7 32985.9 32942.1 32898.2 32854.2 32810.2 32766.1 32721.9 32677.7 32633.4 32589.1 32544.6 32500.1 32455.5 32410.8 32366.2 32321.3 32276.5 32231.5 32186.5 32141.5 32096.3 32051.1 32005.8 31960.5 31915.1 31869.6 31824 31778.4 31732.7 31687 31641.1 31595.1 31549.2 31503.1 31457 31410.8 31364.5 31318.1 31271.7 31225.3 31178.7 31132 31085.3 31038.5 30991.8 30944.8 30897.8 30850.7 30803.6 30756.4 30709 30661.7 30614.2 30566.7 30519.2 30471.5 30423.8 30375.9 30328.1 30280.2 30232.1 30184 30135.8 30087.5 30039.3 29990.8 29942.3 29893.7 29845.1 29796.5 29747.6 29698.8 29649.8 29600.8 29551.8 29502.5 29453.3 29404 29354.6 29305.2 29255.5 29205.9 29156.2 29106.4 29056.6 29006.6 28956.6 28906.5 28856.3 28806.1 28755.7 28705.3 28654.8 28604.2 28553.7 28502.8 28452 28401.1 28350.2 28299.2 28248 28196.7 28145.4 28094.1 28042.7 27991.1 27939.4 27887.7 27835.9 27784.2 27732.1 27680.1 27628 27575.8 27523.6 27471.1 27418.7 27366.1 27313.5 27260.9 27208 27155.1 27102.2 27049.2 26996.1 26942.8 26889.5 26836.1 26782.7 26729.2 26675.5 26621.7 26568 26514.1 26460.2 26406 26351.9 26297.7 26243.4 26189.1 26134.5 26079.9 26025.3 25970.6 25915.9 25860.9 25806 25751 25695.9 25640.8 25585.5 25530.1 25474.8 25419.4 25364 25308.4 25252.7 25197.1 25141.5 25085.8 25030 24974.2 24918.4 24862.7 24807 24751.1 24695.3 24639.6 24583.9 24528.3 24472.5 24417.3 24362.1 24307.1 24252.4 24197.7 24142.7 24087.7 24032.7 23977.3 23922.6 23874 23825.3 23776.7 23732.9 23683.8 23618.4 23553 23487.4 23413 23361.8 23331.4 23301.3 23271.6 23257.5 23253.3 23249.1 23244.9 23240.7 23239.1 23236.5 23231.2 23225.9 23220.6 23214.8 23187.9 23160.7 23133.3 23105.7 23062.1 22986.2 22917.2 22848.3 22779.5 22723.2 22672 22615.7 22559.4 22503 22440.3 22372.6 22304.5 22236.4 22168.3 22099.8 22028.5 21955.3 21882.1 21808.8 21733.5 21655.2 21575.4 21495.6 21415.8 21334.4 21250.1 21164 21077.9 20991.7 20903.7 20812.7 20719.8 20626.8 20533.8 20439 20340.9 20240.7 20140.4 20040 19937.7 19831.8 19723.6 19615.3 19506.9 19396.4 19282.1 19165 19047.8 18930.5 18810.7 18686.7 18559.9 18433 18306 18176.6 18042.5 17904.6 17766.4 17628 17486.2 17339.2 17189.5 17039.7 16889.7 16737.4 16579.6 16415.1 16250.2 16084.9 15913.4 15735.7 15557.6 15379.4 15201.2 15023.2 14838.5 14639 14438.7 14237.6 14022.3 13799.1 13586 13373.5 13161.6 12960.2 12751.3 12503.9 12254.1 12002.2 11712.9 11412.7 11157.3 10904.9 10655.1 10450.4 10237.8 9921.86 9598.29 9266.05 8833.36 8384.37 8071.51 7773.89 7494.4 7349.3 7198.26 6801.99 6357.52 5839.06 5089.68 4311.38 3778.9 3397.98 3250.96 3316.7 3383.01 3362.66 2777.18 1388.18 0