# vtk DataFile Version 2.0
track0
ASCII
DATASET POLYDATA
POINTS 12278 float
-0.0205 0.001 1e-05
-0.02052 0.000999216 1e-05
-0.02054 0.000998592 1e-05
-0.02056 0.000998126 1e-05
-0.02058 0.000997818 1e-05
-0.0206 0.000997665 1e-05
-0.0205 0.00367778 1e-05
-0.02052 0.00367703 1e-05
-0.02054 0.00367643 1e-05
-0.02056 0.00367599 1e-05
-0.02058 0.00367569 1e-05
-0.0206 0.00367554 1e-05
-0.0205 0.00635556 1e-05
-0.02052 0.00635527 1e-05
-0.02054 0.00635505 1e-05
-0.02056 0.00635488 1e-05
-0.02058 0.00635476 1e-05
-0.0206 0.00635471 1e-05
-0.0205 0.00903333 1e-05
-0.02052 0.00903311 1e-05
-0.02054 0.00903293 1e-05
-0.02056 0.0090328 1e-05
-0.02058 0.00903271 1e-05
-0.0206 0.00903266 1e-05
-0.0205 0.0117111 1e-05
-0.02052 0.0117111 1e-05
-0.02054 0.011711 1e-05
-0.02056 0.011711 1e-05
-0.02058 0.011711 1e-05
-0.0206 0.011711 1e-05
-0.0205 0.0143889 1e-05
-0.02052 0.014389 1e-05
-0.02054 0.014389 1e-05
-0.02056 0.0143891 1e-05
-0.02058 0.0143891 1e-05
-0.0206 0.0143891 1e-05
-0.0205 0.0170667 1e-05
-0.02052 0.017067 1e-05
-0.02054 0.0170672 1e-05
-0.02056 0.0170674 1e-05
-0.02058 0.0170675 1e-05
-0.0206 0.0170676 1e-05
-0.0205 0.0197444 1e-05
-0.02052 0.019745 1e-05
-0.02054 0.0197454 1e-05
-0.02056 0.0197457 1e-05
-0.02058 0.0197459 1e-05
-0.0206 0.019746 1e-05
-0.0205 0.0224222 1e-05
-0.02052 0.022423 1e-05
-0.02054 0.0224236 1e-05
-0.02056 0.0224241 1e-05
-0.02058 0.0224244 1e-05
-0.0206 0.0224245 1e-05
-0.0205 0.0251 1e-05
-0.02052 0.0251003 1e-05
-0.02054 0.0251005 1e-05
-0.02056 0.0251007 1e-05
-0.02058 0.0251008 1e-05
-0.0206 0.0251008 1e-05
-0.0205 0.001 1e-05
-0.0203632 0.00100536 1e-05
-0.0202266 0.00101331 1e-05
-0.0200901 0.00102296 1e-05
-0.0200427 0.00102682 1e-05
-0.0198376 0.00104418 1e-05
-0.0196338 0.00107322 1e-05
-0.0194327 0.00111734 1e-05
-0.0192368 0.00118024 1e-05
-0.0190172 0.00124951 1e-05
-0.0189002 0.00128348 1e-05
-0.0187827 0.00131598 1e-05
-0.0186649 0.001347 1e-05
-0.0185469 0.001377 1e-05
-0.0183807 0.00141936 1e-05
-0.0182041 0.00146458 1e-05
-0.0180267 0.00150692 1e-05
-0.0178487 0.0015464 1e-05
-0.0176703 0.00158389 1e-05
-0.0174976 0.0016199 1e-05
-0.0172846 0.00166393 1e-05
-0.0170715 0.00170741 1e-05
-0.0168583 0.00175029 1e-05
-0.0166449 0.00179219 1e-05
-0.0163945 0.00184007 1e-05
-0.0163233 0.00185323 1e-05
-0.0162521 0.00186628 1e-05
-0.0161809 0.00187921 1e-05
-0.0161097 0.001892 1e-05
-0.0160387 0.00190459 1e-05
-0.0157586 0.00195349 1e-05
-0.0154779 0.0019993 1e-05
-0.0151968 0.00204224 1e-05
-0.0149154 0.00208282 1e-05
-0.0146381 0.00212132 1e-05
-0.0143838 0.00215525 1e-05
-0.0141293 0.00218765 1e-05
-0.0138746 0.00221854 1e-05
-0.0136197 0.00224797 1e-05
-0.0132934 0.00228367 1e-05
-0.0132791 0.00228513 1e-05
-0.0132647 0.00228659 1e-05
-0.0132503 0.00228804 1e-05
-0.0132359 0.00228949 1e-05
-0.0132211 0.00229098 1e-05
-0.0129774 0.00231543 1e-05
-0.0127336 0.00233864 1e-05
-0.0124896 0.0023606 1e-05
-0.0122455 0.00238128 1e-05
-0.0120025 0.00240056 1e-05
-0.0117547 0.00241907 1e-05
-0.0115067 0.00243625 1e-05
-0.0112587 0.00245229 1e-05
-0.0110106 0.00246733 1e-05
-0.0107632 0.00248135 1e-05
-0.0105252 0.00249391 1e-05
-0.0102872 0.00250547 1e-05
-0.0100491 0.00251602 1e-05
-0.00981105 0.00252576 1e-05
-0.00957337 0.00253473 1e-05
-0.00934491 0.00254263 1e-05
-0.00911643 0.00254977 1e-05
-0.00888792 0.00255614 1e-05
-0.0086594 0.00256176 1e-05
-0.00843108 0.00256674 1e-05
-0.00821175 0.00257091 1e-05
-0.00799241 0.00257446 1e-05
-0.00777306 0.00257739 1e-05
-0.0075537 0.00257962 1e-05
-0.00733443 0.00258125 1e-05
-0.00712387 0.00258225 1e-05
-0.0069133 0.00258269 1e-05
-0.00670273 0.00258258 1e-05
-0.00649216 0.00258179 1e-05
-0.0062816 0.00258036 1e-05
-0.00607944 0.00257839 1e-05
-0.0058773 0.00257588 1e-05
-0.00567516 0.00257281 1e-05
-0.00547303 0.00256901 1e-05
-0.00527083 0.00256448 1e-05
-0.00507675 0.00255943 1e-05
-0.00488269 0.00255376 1e-05
-0.00468865 0.00254746 1e-05
-0.00449464 0.00254035 1e-05
-0.00430044 0.00253232 1e-05
-0.00411412 0.00252373 1e-05
-0.00392784 0.00251435 1e-05
-0.00374159 0.00250418 1e-05
-0.0035554 0.00249307 1e-05
-0.00336883 0.00248072 1e-05
-0.00318995 0.00246771 1e-05
-0.00301115 0.00245362 1e-05
-0.00283245 0.00243841 1e-05
-0.00265386 0.00242191 1e-05
-0.00247443 0.00240388 1e-05
-0.0023027 0.00238503 1e-05
-0.00213114 0.00236466 1e-05
-0.00195982 0.0023424 1e-05
-0.00178875 0.00231829 1e-05
-0.00161577 0.00229201 1e-05
-0.0016145 0.00229181 1e-05
-0.00161323 0.0022916 1e-05
-0.00161195 0.00229139 1e-05
-0.00161068 0.00229118 1e-05
-0.00160942 0.00229098 1e-05
-0.00144582 0.00226421 1e-05
-0.00128262 0.00223513 1e-05
-0.00111983 0.00220379 1e-05
-0.000957484 0.00217025 1e-05
-0.000791418 0.00213344 1e-05
-0.000633135 0.00209538 1e-05
-0.000475555 0.0020545 1e-05
-0.000318716 0.00201087 1e-05
-0.000162825 0.00196396 1e-05
0 0.00191087 1e-05
3.81099e-05 0.00189741 1e-05
7.61158e-05 0.00188367 1e-05
0.000114019 0.00186964 1e-05
0.000151821 0.00185534 1e-05
0.000182616 0.00184344 1e-05
0.00025177 0.00181626 1e-05
0.000320522 0.00178807 1e-05
0.000388856 0.00175889 1e-05
0.00045676 0.00172871 1e-05
0.000528387 0.00169571 1e-05
0.000634886 0.00164479 1e-05
0.00074028 0.00159161 1e-05
0.000844513 0.0015362 1e-05
0.000947627 0.00147873 1e-05
0.00102297 0.00143473 1e-05
0.00103055 0.00143015 1e-05
0.00103812 0.00142555 1e-05
0.00104569 0.00142094 1e-05
0.00105325 0.00141631 1e-05
0.00106088 0.00141163 1e-05
0.00116821 0.00134552 1e-05
0.00127404 0.00127703 1e-05
0.00137828 0.00120615 1e-05
0.001481 0.00113309 1e-05
0.00159752 0.0010468 1e-05
0.00159795 0.00104647 1e-05
0.00159837 0.00104614 1e-05
0.0015988 0.00104581 1e-05
0.00159923 0.00104547 1e-05
0.00159966 0.00104514 1e-05
0.0016945 0.000971443 1e-05
0.00178794 0.000895966 1e-05
0.00187989 0.000818682 1e-05
0.00197042 0.00073974 1e-05
0.00204088 0.000676389 1e-05
0.00206037 0.000658424 1e-05
0.00207978 0.000640374 1e-05
0.00209911 0.00062224 1e-05
0.00211839 0.000604046 1e-05
0.00213833 0.000585112 1e-05
0.00219207 0.000533751 1e-05
0.00224529 0.00048186 1e-05
0.00229799 0.000429433 1e-05
0.00235015 0.000376462 1e-05
0.00239689 0.000328266 1e-05
0.00245418 0.000268358 1e-05
0.00251084 0.000207861 1e-05
0.00256689 0.00014679 1e-05
0.00262244 8.52598e-05 1e-05
0.00268334 1.66311e-05 1e-05
0.00268623 1.33049e-05 1e-05
0.00268912 9.97713e-06 1e-05
0.00269202 6.6479e-06 1e-05
0.00269491 3.31716e-06 1e-05
0.00269778 0 1e-05
0.00276163 -7.37381e-05 1e-05
0.00282486 -0.00014801 1e-05
0.00288745 -0.000222824 1e-05
0.00294937 -0.000298192 1e-05
0.00300638 -0.00036866 1e-05
0.00305162 -0.000425423 1e-05
0.00309655 -0.000482428 1e-05
0.00314119 -0.000539672 1e-05
0.00318557 -0.000597108 1e-05
0.00323259 -0.000658512 1e-05
0.00325102 -0.00068283 1e-05
0.0032694 -0.000707191 1e-05
0.00328772 -0.000731593 1e-05
0.00330599 -0.000756037 1e-05
0.0033239 -0.0007801 1e-05
0.00339193 -0.000871887 1e-05
0.00345936 -0.00096412 1e-05
0.00352615 -0.00105681 1e-05
0.0035924 -0.00114989 1e-05
0.00365512 -0.00123897 1e-05
0.00368132 -0.00127658 1e-05
0.00370744 -0.00131424 1e-05
0.00373349 -0.00135195 1e-05
0.00375948 -0.0013897 1e-05
0.00378611 -0.00142849 1e-05
0.00383018 -0.00149288 1e-05
0.00387403 -0.00155743 1e-05
0.00391766 -0.00162213 1e-05
0.00396105 -0.00168698 1e-05
0.00400326 -0.00175044 1e-05
0.00407139 -0.00185347 1e-05
0.0041391 -0.00195678 1e-05
0.00420638 -0.00206038 1e-05
0.00427336 -0.00216416 1e-05
0.00434393 -0.00227421 1e-05
0.0043498 -0.00228343 1e-05
0.00435566 -0.00229265 1e-05
0.00436153 -0.00230187 1e-05
0.00436738 -0.00231109 1e-05
0.00437322 -0.00232029 1e-05
0.00445375 -0.00244724 1e-05
0.00453382 -0.00257447 1e-05
0.00461348 -0.00270196 1e-05
0.00469277 -0.00282968 1e-05
0.00477025 -0.00295494 1e-05
0.00479742 -0.00299903 1e-05
0.00482456 -0.00304313 1e-05
0.00485167 -0.00308725 1e-05
0.00487877 -0.00313138 1e-05
0.00490609 -0.00317587 1e-05
0.00496573 -0.00327301 1e-05
0.00502522 -0.00337024 1e-05
0.00508456 -0.00346756 1e-05
0.00514376 -0.00356497 1e-05
0.00520239 -0.00366153 1e-05
0.00525644 -0.00375062 1e-05
0.00531044 -0.00383974 1e-05
0.00536439 -0.00392889 1e-05
0.00541836 -0.00401803 1e-05
0.00547262 -0.00410753 1e-05
0.00551396 -0.00417562 1e-05
0.00555526 -0.00424374 1e-05
0.00559653 -0.00431187 1e-05
0.00563777 -0.00438002 1e-05
0.00567894 -0.00444799 1e-05
0.00575186 -0.0045683 1e-05
0.00582483 -0.00468858 1e-05
0.00589783 -0.00480884 1e-05
0.00597097 -0.00492902 1e-05
0.00604356 -0.00504783 1e-05
0.00607732 -0.00510287 1e-05
0.0061111 -0.00515792 1e-05
0.00614487 -0.00521296 1e-05
0.00617867 -0.00526799 1e-05
0.00621255 -0.00532306 1e-05
0.00629383 -0.00545496 1e-05
0.0063753 -0.00558674 1e-05
0.00645697 -0.0057184 1e-05
0.00653893 -0.00584988 1e-05
0.00661893 -0.00597736 1e-05
0.00665924 -0.00604117 1e-05
0.0066996 -0.00610496 1e-05
0.00674 -0.00616871 1e-05
0.00678046 -0.00623243 1e-05
0.00682124 -0.00629643 1e-05
0.00689675 -0.00641457 1e-05
0.00697253 -0.00653254 1e-05
0.0070486 -0.00665032 1e-05
0.00712499 -0.00676789 1e-05
0.00719878 -0.00688056 1e-05
0.00726452 -0.00698018 1e-05
0.00733046 -0.00707968 1e-05
0.00739658 -0.00717904 1e-05
0.00746298 -0.00727823 1e-05
0.00753068 -0.00737871 1e-05
0.00758117 -0.00745315 1e-05
0.00763182 -0.00752748 1e-05
0.00768263 -0.0076017 1e-05
0.0077336 -0.00767581 1e-05
0.00778313 -0.0077474 1e-05
0.00789919 -0.00791417 1e-05
0.00801599 -0.00808041 1e-05
0.00813356 -0.00824612 1e-05
0.00825213 -0.00841111 1e-05
0.00837203 -0.00857577 1e-05
0.00837287 -0.0085769 1e-05
0.0083737 -0.00857803 1e-05
0.00837454 -0.00857916 1e-05
0.00837537 -0.00858029 1e-05
0.0083762 -0.00858142 1e-05
0.00849406 -0.00874102 1e-05
0.00861287 -0.00889992 1e-05
0.00873264 -0.00905809 1e-05
0.00885341 -0.00921551 1e-05
0.00896551 -0.00935947 1e-05
0.00902146 -0.00943033 1e-05
0.00907761 -0.00950103 1e-05
0.00913397 -0.00957157 1e-05
0.00919055 -0.00964192 1e-05
0.00924877 -0.00971382 1e-05
0.00931174 -0.00979103 1e-05
0.00937497 -0.00986802 1e-05
0.00943848 -0.00994479 1e-05
0.00950226 -0.0100213 1e-05
0.0095636 -0.0100944 1e-05
[...]
POINT_DATA 12278
 FIELD attributes 1
U 3 12278 float
9.72339 	0.381311 	0 9.77871 	0.305049 	0 9.83405 	0.228765 	0 9.8894 	0.152465 	0 9.94476 	0.0761531 	0 10 	0 	0
10.0671 	0.37548 	0 10.0537 	0.300384 	0 10.0403 	0.225269 	0 10.0268 	0.15014 	0 10.0134 	0.0750002 	0 10 	0 	0
10.0364 	0.141568 	0 10.0291 	0.113301 	0 10.0218 	0.0850865 	0 10.0145 	0.0569247 	0 10.0071 	0.0288155 	0 10 	0 	0
10.0137 	0.111512 	0 10.011 	0.0892099 	0 10.0082 	0.0669069 	0 10.0055 	0.0446035 	0 10.0027 	0.0222999 	0 10 	0 	0
10.0097 	0.0196474 	0 10.0078 	0.0157179 	0 10.0058 	0.0117884 	0 10.0039 	0.00785895 	0 10.0019 	0.00392946 	0 10 	0 	0
10.0102 	-0.0372933 	0 10.0082 	-0.0298347 	0 10.0061 	-0.022376 	0 10.0041 	-0.0149173 	0 10.002 	-0.00745857 	0 10 	0 	0
10.0174 	-0.149002 	0 10.0139 	-0.119202 	0 10.0105 	-0.0894 	0 10.007 	-0.0595975 	0 10.0035 	-0.0297943 	0 10 	0 	0
10.0362 	-0.265905 	0 10.029 	-0.212724 	0 10.0217 	-0.159537 	0 10.0145 	-0.106344 	0 10.0072 	-0.0531468 	0 10 	0 	0
10.0563 	-0.387169 	0 10.045 	-0.309735 	0 10.0338 	-0.232281 	0 10.0225 	-0.154811 	0 10.0112 	-0.0773286 	0 10 	0 	0
8.30133 	-0.114495 	0 8.4287 	-0.091596 	0 8.55659 	-0.0686962 	0 8.68498 	-0.0457957 	0 8.81385 	-0.0228949 	0 8.94315 	0 	0
9.72339 	0.381311 	0 9.5415 	0.55524 	0 9.39671 	0.66365 	0 9.26203 	0.75427 	0 9.2183 	0.780384 	0 8.95344 	1.27614 	0 8.70578 	1.91036 	0 8.48174 	2.72183 	0 8.46724 	2.67123 	0 8.47253 	2.45985 	0 8.50118 	2.35313 	0 8.52499 	2.24429 	0 8.51222 	2.16309 	0 8.42488 	2.14736 	0 8.30215 	2.12557 	0 8.30119 	1.98208 	0 8.28716 	1.83796 	0 8.21183 	1.72567 	0 8.03502 	1.67505 	0 7.86308 	1.62573 	0 7.68325 	1.56756 	0 7.50179 	1.50872 	0 7.42795 	1.45836 	0 7.3615 	1.40768 	0 7.27866 	1.34667 	0 7.22251 	1.32372 	0 7.16616 	1.30066 	0 7.10962 	1.2775 	0 7.07932 	1.25437 	0 7.05295 	1.23118 	0 6.97398 	1.13835 	0 6.88846 	1.05224 	0 6.79887 	0.980302 	0 6.71196 	0.932057 	0 6.62284 	0.883634 	0 6.55092 	0.833745 	0 6.49231 	0.787555 	0 6.44247 	0.74382 	0 6.3887 	0.699052 	0 6.31697 	0.642261 	0 6.31479 	0.64016 	0 6.31322 	0.63833 	0 6.31173 	0.636538 	0 6.31023 	0.634745 	0 6.30869 	0.6329 	0 6.27132 	0.597042 	0 6.23151 	0.560855 	0 6.18922 	0.524336 	0 6.14441 	0.48748 	0 6.10943 	0.456284 	0 6.07601 	0.42101 	0 6.04569 	0.391046 	0 6.01699 	0.364611 	0 5.99439 	0.339672 	0 5.97311 	0.315282 	0 5.9524 	0.28916 	0 5.92965 	0.262828 	0 5.91339 	0.241781 	0 5.90329 	0.222795 	0 5.89169 	0.203746 	0 5.87902 	0.183694 	0 5.86482 	0.163542 	0 5.85608 	0.143996 	0 5.85315 	0.127631 	0 5.84895 	0.111239 	0 5.8427 	0.0946226 	0 5.83521 	0.0779646 	0 5.83309 	0.0592857 	0 5.83596 	0.0434416 	0 5.83762 	0.0275979 	0 5.83676 	0.0123232 	0 5.83491 	-0.0030258 	0 5.83873 	-0.0220917 	0 5.84679 	-0.0395479 	0 5.85367 	-0.0569478 	0 5.85799 	-0.0729858 	0 5.86119 	-0.0889981 	0 5.87051 	-0.110356 	0 5.88392 	-0.131846 	0 5.89584 	-0.153264 	0 5.90564 	-0.172593 	0 5.91415 	-0.191854 	0 5.92842 	-0.217285 	0 5.94723 	-0.246178 	0 5.96416 	-0.274932 	0 5.98003 	-0.301115 	0 5.99426 	-0.32715 	0 6.01323 	-0.358745 	0 6.03724 	-0.399826 	0 6.05876 	-0.440665 	0 6.08101 	-0.479061 	0 6.10308 	-0.519563 	0 6.12829 	-0.566135 	0 6.15271 	-0.61823 	0 6.17674 	-0.677931 	0 6.20395 	-0.736726 	0 6.23518 	-0.809992 	0 6.26255 	-0.882724 	0 6.28609 	-0.954921 	0 6.3061 	-1.0277 	0 6.3063 	-1.02838 	0 6.30651 	-1.02922 	0 6.30673 	-1.03008 	0 6.30695 	-1.03094 	0 6.30717 	-1.03179 	0 6.33046 	-1.12807 	0 6.3486 	-1.22229 	0 6.36169 	-1.31447 	0 6.37219 	-1.41232 	0 6.38521 	-1.53543 	0 6.40287 	-1.661 	0 6.4143 	-1.78449 	0 6.40231 	-1.92655 	2.59118e-20 6.36548 	-2.07536 	5.30887e-20 6.31531 	-2.22991 	8.05845e-20 6.3069 	-2.28133 	2.14716e-20 6.29443 	-2.32956 	3.63129e-21 6.2777 	-2.37442 	2.96025e-20 6.26039 	-2.41901 	5.62202e-20 6.24577 	-2.45521 	7.84891e-20 6.21953 	-2.54995 	1.77442e-19 6.19137 	-2.64415 	2.80476e-19 6.16132 	-2.73777 	3.87565e-19 6.11559 	-2.81798 	2.71775e-19 6.05966 	-2.89737 	6.19416e-20 5.97974 	-3.01688 	4.86888e-20 5.89473 	-3.13365 	3.5772e-20 5.79794 	-3.23141 	8.11051e-21 5.69675 	-3.32723 	-1.85508e-20 5.61871 	-3.39657 	-3.74977e-20 5.61025 	-3.40515 	-3.73035e-20 5.60177 	-3.41373 	-3.70964e-20 5.59322 	-3.42171 	-3.81629e-20 5.58454 	-3.42814 	-4.26111e-20 5.57575 	-3.43462 	-4.70984e-20 5.45599 	-3.53075 	-2.88291e-20 5.33092 	-3.62493 	-9.98626e-21 5.20481 	-3.70207 	-2.84028e-22 5.07863 	-3.76073 	-7.66065e-22 4.92877 	-3.82666 	-4.34844e-22 4.92819 	-3.82693 	-2.66454e-22 4.9276 	-3.8272 	-9.80604e-23 4.92705 	-3.82741 	9.54057e-23 4.92653 	-3.82757 	3.23825e-22 4.92601 	-3.82772 	5.52e-22 4.80017 	-3.87745 	8.89836e-22 4.67012 	-3.92531 	2.25215e-21 4.54315 	-3.96162 	3.9887e-21 4.42528 	-3.97883 	6.12233e-21 4.32983 	-3.99128 	7.99967e-21 4.30037 	-3.99872 	1.30051e-20 4.27071 	-4.0061 	1.80465e-20 4.24615 	-4.00779 	8.97873e-21 4.22171 	-4.00914 	-7.93203e-22 4.19622 	-4.01049 	-1.09149e-20 4.12162 	-4.01797 	-6.39617e-20 4.04582 	-4.02491 	-1.16631e-19 3.96897 	-4.03116 	-1.67351e-19 3.90406 	-4.02566 	-1.02295e-19 3.84465 	-4.02031 	-4.31072e-20 3.7678 	-4.02252 	3.73795e-21 3.69106 	-4.02188 	4.1223e-20 3.61984 	-4.01001 	3.34916e-20 3.54757 	-3.99767 	2.60271e-20 3.46637 	-3.98348 	1.80699e-20 3.46229 	-3.98298 	1.88364e-20 3.4582 	-3.98247 	1.96032e-20 3.45411 	-3.98196 	2.03702e-20 3.45026 	-3.98109 	2.10139e-20 3.4465 	-3.98007 	2.16064e-20 3.37853 	-3.9685 	1.40424e-20 3.30829 	-3.95448 	7.32647e-21 3.23684 	-3.93975 	6.05149e-22 3.16501 	-3.91268 	6.26868e-21 3.09735 	-3.88607 	1.24576e-20 3.05561 	-3.87625 	3.46536e-20 3.01358 	-3.86506 	5.03665e-20 2.97232 	-3.84641 	2.33354e-20 2.93067 	-3.82753 	-3.63931e-21 2.88586 	-3.80717 	-3.23166e-20 2.86731 	-3.80051 	-3.85694e-20 2.84866 	-3.7938 	-4.48246e-20 2.82993 	-3.78704 	-5.1082e-20 2.81129 	-3.77782 	-5.74269e-20 2.79294 	-3.76814 	-6.36856e-20 2.73946 	-3.74726 	-1.07463e-19 2.68514 	-3.72588 	-1.51362e-19 2.63028 	-3.6955 	-1.46274e-19 2.57577 	-3.65831 	-8.81895e-20 2.52316 	-3.6224 	-3.26529e-20 2.50633 	-3.61361 	1.88724e-21 2.48945 	-3.60461 	3.47294e-20 2.47366 	-3.59239 	2.95401e-20 2.45781 	-3.58012 	2.43861e-20 2.44146 	-3.56749 	1.91329e-20 2.41071 	-3.54843 	5.6417e-20 2.3797 	-3.52917 	9.36198e-20 2.34843 	-3.50972 	1.30739e-19 2.31822 	-3.48523 	1.03686e-19 2.28862 	-3.4608 	7.23635e-20 2.25149 	-3.43523 	4.24361e-20 2.21391 	-3.40934 	1.24758e-20 2.17916 	-3.37658 	-2.98723e-21 2.14414 	-3.34349 	-1.82433e-20 2.10674 	-3.30823 	-3.44237e-20 2.10311 	-3.30546 	-3.20696e-20 2.09947 	-3.30268 	-2.97182e-20 2.09583 	-3.29989 	-2.73695e-20 2.0924 	-3.29656 	-3.42172e-20 2.08898 	-3.29322 	-4.14002e-20 2.05216 	-3.26106 	-1.63635e-19 2.01628 	-3.2269 	-2.55408e-19 1.98102 	-3.19101 	-3.00043e-19 1.94863 	-3.15028 	-1.93551e-19 1.91671 	-3.11023 	-8.91045e-20 1.90783 	-3.10035 	-7.77272e-20 1.89893 	-3.09046 	-6.63451e-20 1.89136 	-3.07939 	-5.58129e-20 1.88408 	-3.06806 	-4.54693e-20 1.87675 	-3.05663 	-3.50404e-20 1.85493 	-3.03163 	-1.07379e-20 1.83301 	-3.00652 	1.35865e-20 1.81151 	-2.98076 	3.08992e-20 1.79256 	-2.9522 	1.3337e-20 1.77375 	-2.92386 	-4.05684e-21 1.7599 	-2.9045 	-1.99881e-20 1.74601 	-2.88511 	-3.59054e-20 1.73438 	-2.86436 	-1.64047e-20 1.72368 	-2.84309 	1.72496e-20 1.71298 	-2.82176 	5.10512e-20 1.70096 	-2.80516 	1.6994e-20 1.68891 	-2.78853 	-1.70109e-20 1.67746 	-2.77146 	-2.86558e-20 1.66762 	-2.75324 	1.79117e-20 1.65781 	-2.73508 	6.4345e-20 1.64392 	-2.7102 	2.05695e-19 1.63004 	-2.68534 	3.46994e-19 1.61865 	-2.65966 	3.06076e-19 1.60904 	-2.63348 	1.39534e-19 1.59967 	-2.60768 	-2.58134e-20 1.59229 	-2.59516 	-5.33248e-20 1.58491 	-2.58265 	-8.08411e-20 1.57827 	-2.56981 	-8.39223e-20 1.57269 	-2.55653 	-5.23882e-20 1.56713 	-2.54326 	-2.08371e-20 1.55657 	-2.51777 	-2.26669e-20 1.54612 	-2.49238 	-2.45375e-20 1.53774 	-2.46683 	-1.6743e-20 1.53191 	-2.44111 	2.88872e-21 1.52648 	-2.41632 	2.19118e-20 1.52027 	-2.40293 	3.30058e-20 1.51409 	-2.38955 	4.4096e-20 1.5091 	-2.37595 	4.79917e-20 1.50502 	-2.36221 	4.65383e-20 1.50096 	-2.34844 	4.50605e-20 1.49526 	-2.32748 	2.72424e-20 1.48972 	-2.30665 	9.39619e-21 1.48536 	-2.28603 	-2.81262e-21 1.4838 	-2.26576 	-6.77645e-22 1.48252 	-2.24648 	1.36949e-21 1.47595 	-2.22725 	7.16193e-20 1.46947 	-2.20811 	1.42066e-19 1.46539 	-2.18908 	1.18666e-19 1.46219 	-2.17017 	6.42174e-20 1.4591 	-2.15111 	9.05973e-21 1.45767 	-2.13922 	-2.73197e-20 1.45632 	-2.1274 	-6.36454e-20 1.4553 	-2.11579 	-9.21402e-20 1.45695 	-2.10574 	-4.14482e-20 1.45865 	-2.09609 	7.81238e-21 1.45159 	-2.06608 	4.57617e-21 1.44483 	-2.03635 	1.32247e-21 1.44453 	-2.01012 	-2.49986e-20 1.44507 	-1.98449 	-5.29721e-20 1.44624 	-1.95924 	-8.07647e-20 1.44618 	-1.95903 	-8.00791e-20 1.44613 	-1.95881 	-7.93934e-20 1.44613 	-1.95862 	-7.99077e-20 1.44612 	-1.95843 	-8.04267e-20 1.44612 	-1.95824 	-8.09459e-20 1.44399 	-1.93131 	-2.24121e-19 1.44229 	-1.90474 	-3.66462e-19 1.44148 	-1.87884 	-4.73562e-19 1.44597 	-1.85694 	-2.01458e-19 1.45059 	-1.83719 	5.0959e-20 1.44877 	-1.82418 	1.06542e-19 1.44703 	-1.81124 	1.62294e-19 1.44783 	-1.8001 	1.34023e-19 1.44874 	-1.78904 	1.0555e-19 1.44976 	-1.77779 	7.6455e-20 1.45081 	-1.76643 	6.59378e-20 1.45197 	-1.75516 	5.54508e-20 1.45325 	-1.74398 	4.49944e-20 1.45634 	-1.73427 	4.75587e-20 1.45947 	-1.7251 	5.04476e-20 1.45911 	-1.70164 	2.56821e-20 1.4591 	-1.67846 	8.5306e-22 1.4627 	-1.65806 	2.42391e-20 1.46681 	-1.63808 	4.94062e-20 1.47224 	-1.6205 	7.26684e-20 1.47224 	-1.61849 	7.21219e-20 1.47229 	-1.61651 	7.21862e-20 1.47259 	-1.6147 	7.59127e-20 1.47289 	-1.6129 	7.96387e-20 1.4732 	-1.61109 	8.33864e-20 1.4762 	-1.59323 	1.38723e-19 1.47954 	-1.57562 	1.93907e-19 1.48321 	-1.55825 	2.48934e-19 1.48909 	-1.54297 	1.69207e-19 1.49518 	-1.52929 	7.3756e-20 1.49686 	-1.51173 	1.39303e-19 1.49925 	-1.4948 	1.82551e-19 1.50349 	-1.47955 	1.44899e-19 1.50801 	-1.46452 	1.0768e-19 1.51313 	-1.44871 	6.84476e-20 1.51375 	-1.44695 	6.20456e-20 1.51438 	-1.44519 	5.5652e-20 1.51501 	-1.44343 	4.92669e-20 1.51578 	-1.44184 	5.79236e-20 1.5166 	-1.44034 	7.27122e-20 1.52025 	-1.42266 	1.53023e-19 1.52528 	-1.40573 	2.01197e-19 1.53068 	-1.38908 	2.4897e-19 1.53795 	-1.37456 	1.88836e-19 1.54523 	-1.36146 	1.21689e-19 1.54849 	-1.34539 	1.99722e-19 1.55257 	-1.33017 	2.27431e-19 1.55784 	-1.31627 	1.68657e-19 1.56339 	-1.30256 	1.10061e-19 1.56971 	-1.28793 	4.67726e-20 1.57014 	-1.28701 	4.40066e-20 1.57058 	-1.28609 	4.12406e-20 1.57101 	-1.28517 	3.84748e-20 1.57149 	-1.28432 	3.78256e-20 1.572 	-1.28353 	3.88755e-20 1.57725 	-1.26827 	-1.79073e-20 1.58328 	-1.25347 	-6.62515e-20 1.58965 	-1.23889 	-1.14502e-19 1.59708 	-1.22581 	-8.61926e-20 1.60471 	-1.2143 	-2.34014e-20 1.60945 	-1.19868 	-6.88449e-20 1.61464 	-1.18352 	-1.05584e-19 1.62102 	-1.17013 	-8.39604e-20 1.62777 	-1.15698 	-6.09324e-20 1.63599 	-1.14549 	3.55279e-22 1.63766 	-1.14076 	1.99764e-20 1.63952 	-1.13637 	1.95262e-20 1.64154 	-1.13222 	4.94695e-21 1.64359 	-1.12808 	-9.60786e-21 1.64574 	-1.12383 	-2.46451e-20 1.65037 	-1.11502 	-6.52022e-20 1.65514 	-1.1063 	-1.05578e-19 1.66006 	-1.09767 	-1.4577e-19 1.66528 	-1.08961 	-1.44329e-19 1.6707 	-1.08263 	-7.99327e-20 1.67613 	-1.06881 	-1.11998e-19 1.68184 	-1.05516 	-1.44214e-19 1.68948 	-1.04299 	-1.5002e-19 1.69784 	-1.03228 	-1.39655e-19 1.7061 	-1.02223 	-1.29635e-19 1.71216 	-1.00865 	-2.80038e-19 1.71879 	-0.996227 	-3.14878e-19 1.72589 	-0.984714 	-2.61e-19 1.73326 	-0.973363 	-2.07638e-19 1.74118 	-0.962931 	-1.18161e-19 1.74231 	-0.960686 	-1.00863e-19 1.7435 	-0.95867 	-1.02119e-19 1.74471 	-0.956716 	-1.08229e-19 1.74593 	-0.954768 	-1.14325e-19 1.74719 	-0.95278 	-1.20545e-19 1.75325 	-0.943465 	-1.25059e-19 1.75949 	-0.934256 	-1.2953e-19 1.76592 	-0.925151 	-1.33957e-19 1.77255 	-0.916437 	-1.3148e-19 1.77924 	-0.909231 	-1.0131e-19 1.78555 	-0.897252 	-1.28975e-19 1.79239 	-0.885575 	-1.50891e-19 1.80056 	-0.87488 	-1.44519e-19 1.80902 	-0.865871 	-1.01139e-19 1.81743 	-0.857284 	-5.90984e-20 1.82431 	-0.845554 	-1.63159e-19 1.83144 	-0.834307 	-2.38511e-19 1.83878 	-0.824573 	-1.97419e-19 1.84675 	-0.815193 	-1.28008e-19 1.85556 	-0.8067 	9.27068e-23 1.86115 	-0.798068 	1.72492e-22 1.86678 	-0.790759 	1.43571e-22 1.87254 	-0.783542 	1.12205e-22 1.87843 	-0.776393 	8.05518e-23 1.88513 	-0.768504 	4.49695e-23 1.88697 	-0.766441 	3.59799e-21 1.88883 	-0.764384 	7.13956e-21 1.8907 	-0.762332 	1.06697e-20 1.89258 	-0.760287 	1.41884e-20 1.89438 	-0.758653 	2.17687e-21 1.90173 	-0.748943 	-3.75648e-20 1.90969 	-0.739628 	-5.93297e-20 1.91788 	-0.730425 	-8.09147e-20 1.9262 	-0.721648 	-8.82433e-20 1.93419 	-0.71463 	-2.95314e-20 1.94129 	-0.704654 	-1.94702e-20 1.9488 	-0.694922 	-1.06213e-20 1.95731 	-0.686028 	-7.77975e-21 1.96551 	-0.678908 	-1.43616e-20 1.97372 	-0.672014 	-2.08488e-20 1.98124 	-0.662293 	5.55831e-20 1.98899 	-0.652673 	1.32127e-19 1.99634 	-0.644758 	1.26819e-19 2.00462 	-0.637717 	6.57542e-20 2.01303 	-0.630953 	1.39491e-22 2.02094 	-0.62149 	7.37102e-23 2.0285 	-0.613367 	-1.41996e-20 2.03604 	-0.605816 	-3.4025e-20 2.04376 	-0.598343 	-5.38262e-20 2.05211 	-0.591546 	-6.82746e-20 2.05767 	-0.585488 	-1.01475e-19 2.06285 	-0.580352 	-1.04298e-19 2.06812 	-0.575251 	-1.07158e-19 2.07347 	-0.570186 	-1.10054e-19 2.07955 	-0.564567 	-1.13331e-19 2.0819 	-0.562478 	-1.17011e-19 2.08426 	-0.560395 	-1.20686e-19 2.08663 	-0.558319 	-1.24356e-19 2.08902 	-0.556248 	-1.28021e-19 2.09119 	-0.554573 	-1.15593e-19 2.09865 	-0.547117 	-9.03748e-20 2.10644 	-0.539954 	-6.11579e-20 2.1144 	-0.53286 	-3.19792e-20 2.12254 	-0.525834 	-2.83893e-21 2.12968 	-0.520584 	1.78795e-22 2.13698 	-0.512821 	6.7532e-20 2.14482 	-0.505706 	9.52471e-20 2.15291 	-0.49881 	1.12289e-19 2.16046 	-0.492962 	8.19241e-20 2.16747 	-0.488041 	1.24751e-20 2.175 	-0.480522 	-5.74822e-20 2.1827 	-0.473067 	-1.27456e-19 2.19066 	-0.466614 	-1.35082e-19 2.19756 	-0.46175 	-6.73093e-20 2.20454 	-0.456968 	-6.21441e-23 2.21225 	-0.449695 	-2.93696e-23 2.22014 	-0.44248 	3.23249e-24 2.22712 	-0.436726 	0 2.23394 	-0.432011 	0 2.24083 	-0.427369 	0 2.24871 	-0.42034 	0 2.25631 	-0.413819 	0 2.26285 	-0.408593 	0 2.26953 	-0.403737 	-8.09566e-21 2.27632 	-0.399236 	-2.31544e-20 2.28432 	-0.392448 	-4.2332e-21 2.29111 	-0.386998 	-7.3484e-21 2.29764 	-0.381958 	-1.68071e-20 2.30429 	-0.376954 	-2.6255e-20 2.31094 	-0.372546 	-6.3666e-20 2.31856 	-0.366409 	-3.03833e-20 2.32493 	-0.36152 	-3.21496e-20 2.33143 	-0.356664 	-3.38879e-20 2.33804 	-0.351842 	-3.55983e-20 2.34466 	-0.347269 	-4.56104e-20 2.34948 	-0.343554 	-3.83758e-20 2.35379 	-0.340323 	-3.9478e-20 2.35814 	-0.337106 	-4.05676e-20 2.36256 	-0.333904 	-4.16446e-20 2.36758 	-0.330317 	-4.28423e-20 2.36955 	-0.328945 	-4.23857e-20 2.37154 	-0.327575 	-4.19314e-20 2.37353 	-0.326208 	-4.14795e-20 2.37553 	-0.324843 	-4.10298e-20 2.37728 	-0.323689 	-4.17132e-20 2.38351 	-0.319042 	-5.41866e-20 2.38979 	-0.314521 	-5.86726e-20 2.39617 	-0.310028 	-6.30821e-20 2.40267 	-0.305562 	-6.74155e-20 2.4081 	-0.301988 	-3.82054e-20 2.41453 	-0.297228 	-7.90654e-20 2.4207 	-0.292884 	-9.1153e-20 2.42697 	-0.288566 	-1.03182e-19 2.43335 	-0.284273 	-1.15153e-19 2.43776 	-0.281428 	-6.98756e-20 2.44444 	-0.276626 	-1.20258e-19 2.4505 	-0.272441 	-1.24033e-19 2.45665 	-0.268296 	-1.26475e-19 2.46235 	-0.264525 	-1.18372e-19 2.46625 	-0.261975 	-7.47023e-20 2.47292 	-0.257381 	-1.17262e-19 2.47918 	-0.253149 	-1.31417e-19 2.48518 	-0.249173 	-1.25763e-19 2.4899 	-0.246035 	-9.48449e-20 2.49357 	-0.243592 	-4.32157e-20 2.50021 	-0.239202 	4.31847e-20 2.50671 	-0.234963 	1.10154e-19 2.51254 	-0.231156 	1.15566e-19 2.5163 	-0.228581 	5.09962e-20 2.51972 	-0.226241 	-2.61177e-20 2.5263 	-0.222053 	-1.70178e-20 2.533 	-0.217882 	-7.9277e-21 2.53841 	-0.214371 	8.67087e-21 2.54152 	-0.212121 	2.59672e-20 2.54468 	-0.209884 	4.32389e-20 2.5512 	-0.205891 	-4.33458e-20 2.55783 	-0.201915 	-1.29943e-19 2.56272 	-0.198763 	-1.40227e-19 2.56557 	-0.196615 	-7.00485e-20 2.56847 	-0.194478 	3.39917e-23 2.57491 	-0.190678 	9.33082e-22 2.58145 	-0.186892 	1.81154e-21 2.58587 	-0.184072 	-1.46748e-20 2.58846 	-0.182023 	-4.84503e-20 2.59109 	-0.179984 	-8.22016e-20 2.59744 	-0.176371 	-4.67438e-20 2.60389 	-0.172771 	-1.13016e-20 2.60788 	-0.170257 	-8.55375e-21 2.6102 	-0.168305 	-2.59446e-20 2.61256 	-0.166362 	-4.33202e-20 2.61881 	-0.162932 	-2.60018e-20 2.625 	-0.159572 	-9.60348e-21 2.62859 	-0.157317 	-1.03358e-20 2.6308 	-0.155421 	-2.60679e-20 2.6329 	-0.153571 	-4.34007e-20 2.63904 	-0.150319 	-1.64959e-19 2.64456 	-0.147342 	-2.56101e-19 2.64799 	-0.145205 	-2.51487e-19 2.65028 	-0.143331 	-1.64814e-19 2.65211 	-0.141572 	-4.33736e-20 2.65813 	-0.138494 	-2.59884e-20 2.66302 	-0.135858 	-8.62304e-21 2.66628 	-0.133837 	8.71392e-21 2.66866 	-0.131998 	2.16943e-20 2.67023 	-0.130328 	3.06348e-20 2.67612 	-0.127418 	9.17223e-20 2.6804 	-0.125086 	1.16571e-19 2.68349 	-0.123177 	1.14926e-19 2.68597 	-0.121384 	9.24976e-20 2.68728 	-0.1198 	3.2032e-20 2.69304 	-0.117054 	2.3582e-20 2.69673 	-0.114992 	1.51496e-20 2.69965 	-0.11319 	6.72109e-21 2.70223 	-0.111453 	0 2.70329 	-0.109954 	0 2.70892 	-0.107366 	0 2.71204 	-0.105542 	1.53569e-20 2.7148 	-0.103846 	3.31855e-20 2.71748 	-0.102171 	5.10015e-20 2.71828 	-0.100754 	6.8742e-20 2.72378 	-0.0983184 	1.90775e-19 2.72638 	-0.0967066 	1.90139e-19 2.72897 	-0.0951106 	1.87656e-19 2.73162 	-0.0935178 	1.85222e-19 2.7323 	-0.0921658 	7.0807e-20 2.73736 	-0.0899546 	5.37817e-20 2.73976 	-0.088453 	3.68076e-20 2.7422 	-0.0869541 	1.98254e-20 2.74467 	-0.0854579 	2.83526e-21 2.74537 	-0.0841582 	1.41686e-20 2.74998 	-0.0821597 	-5.10773e-24 2.75222 	-0.0807518 	-3.06531e-23 2.75451 	-0.0793464 	-5.61885e-23 2.75683 	-0.0779432 	-8.17139e-23 2.75753 	-0.0766996 	6.13884e-21 2.76172 	-0.0748924 	-4.88301e-20 2.76381 	-0.0735746 	-4.75533e-20 2.76594 	-0.0722589 	-4.63034e-20 2.7681 	-0.0709451 	-4.50805e-20 2.76882 	-0.0697604 	-5.40605e-21 2.77261 	-0.0681251 	8.6319e-23 2.77456 	-0.0668937 	6.1197e-23 2.77654 	-0.065664 	3.60653e-23 2.77855 	-0.0644361 	1.09241e-23 2.77926 	-0.063312 	0 2.7827 	-0.0618315 	1.18637e-20 2.7845 	-0.0606827 	3.81886e-20 2.78633 	-0.0595354 	6.45048e-20 2.7882 	-0.0583896 	9.08125e-20 2.78891 	-0.0573272 	1.08606e-19 2.79201 	-0.0559858 	1.71026e-19 2.79367 	-0.0549161 	1.69967e-19 2.79537 	-0.0538476 	1.68935e-19 2.7971 	-0.0527803 	1.6793e-19 2.79779 	-0.0517798 	1.03953e-19 2.80058 	-0.0505638 	8.80159e-20 2.80212 	-0.0495694 	5.35683e-20 2.80368 	-0.0485761 	1.91154e-20 2.80528 	-0.0475839 	-1.53429e-20 2.80595 	-0.0466449 	-4.65096e-20 2.80846 	-0.0455419 	-8.75042e-20 2.80987 	-0.0446194 	-8.63164e-20 2.81131 	-0.0436977 	-8.51618e-20 2.81277 	-0.0427769 	-8.40405e-20 2.81342 	-0.0418987 	-3.74396e-20 2.81567 	-0.0408977 	-4.80434e-20 2.81697 	-0.0400434 	-3.02274e-20 2.81828 	-0.0391899 	-1.2429e-20 2.81963 	-0.0383371 	5.35191e-21 2.82024 	-0.0375183 	4.31172e-20 2.82226 	-0.0366095 	5.06066e-20 2.82344 	-0.03582 	6.80783e-20 2.82465 	-0.0350312 	8.55419e-20 2.82587 	-0.0342431 	1.02997e-19 2.82645 	-0.033482 	1.22637e-19 2.82827 	-0.0326567 	1.44316e-19 2.82934 	-0.0319287 	1.35101e-19 2.83043 	-0.0312013 	1.25905e-19 2.83155 	-0.0304743 	1.16731e-19 2.83208 	-0.0297691 	8.20588e-20 2.83371 	-0.0290195 	5.82547e-20 2.83468 	-0.0283497 	3.24989e-20 2.83567 	-0.0276803 	6.74123e-21 2.83668 	-0.0270113 	-1.90182e-20 2.83717 	-0.0263599 	-4.123e-20 2.83864 	-0.025679 	-5.34502e-20 2.83951 	-0.0250641 	-3.56794e-20 2.84041 	-0.0244495 	-1.79343e-20 2.84132 	-0.0238352 	-2.14747e-22 2.84175 	-0.0232353 	4.79942e-20 2.84307 	-0.0226171 	9.74674e-20 2.84386 	-0.0220539 	1.0516e-19 2.84466 	-0.021491 	1.12895e-19 2.84548 	-0.0209283 	1.20673e-19 2.84585 	-0.0203776 	8.83074e-20 2.84706 	-0.0198165 	7.23148e-20 2.84776 	-0.0193019 	6.37682e-20 2.84848 	-0.0187876 	5.52175e-20 2.84921 	-0.0182735 	4.66628e-20 2.84952 	-0.0177694 	3.81101e-20 2.85061 	-0.0172605 	1.73924e-20 2.85124 	-0.0167917 	1.77383e-20 2.85188 	-0.016323 	1.80619e-20 2.85253 	-0.0158545 	1.83633e-20 2.85277 	-0.0153945 	4.16528e-20 2