# vtk DataFile Version 2.0
track0
ASCII
DATASET POLYDATA
POINTS 12278 float
-0.0205 0.001 1e-05
-0.02052 0.000999216 1e-05
-0.02054 0.000998592 1e-05
-0.02056 0.000998126 1e-05
-0.02058 0.000997818 1e-05
-0.0206 0.000997665 1e-05
-0.0205 0.00367778 1e-05
-0.02052 0.00367703 1e-05
-0.02054 0.00367643 1e-05
-0.02056 0.00367599 1e-05
-0.02058 0.00367569 1e-05
-0.0206 0.00367554 1e-05
-0.0205 0.00635556 1e-05
-0.02052 0.00635527 1e-05
-0.02054 0.00635505 1e-05
-0.02056 0.00635488 1e-05
-0.02058 0.00635476 1e-05
-0.0206 0.00635471 1e-05
-0.0205 0.00903333 1e-05
-0.02052 0.00903311 1e-05
-0.02054 0.00903293 1e-05
-0.02056 0.0090328 1e-05
-0.02058 0.00903271 1e-05
-0.0206 0.00903266 1e-05
-0.0205 0.0117111 1e-05
-0.02052 0.0117111 1e-05
-0.02054 0.011711 1e-05
-0.02056 0.011711 1e-05
-0.02058 0.011711 1e-05
-0.0206 0.011711 1e-05
-0.0205 0.0143889 1e-05
-0.02052 0.014389 1e-05
-0.02054 0.014389 1e-05
-0.02056 0.0143891 1e-05
-0.02058 0.0143891 1e-05
-0.0206 0.0143891 1e-05
-0.0205 0.0170667 1e-05
-0.02052 0.017067 1e-05
-0.02054 0.0170672 1e-05
-0.02056 0.0170674 1e-05
-0.02058 0.0170675 1e-05
-0.0206 0.0170676 1e-05
-0.0205 0.0197444 1e-05
-0.02052 0.019745 1e-05
-0.02054 0.0197454 1e-05
-0.02056 0.0197457 1e-05
-0.02058 0.0197459 1e-05
-0.0206 0.019746 1e-05
-0.0205 0.0224222 1e-05
-0.02052 0.022423 1e-05
-0.02054 0.0224236 1e-05
-0.02056 0.0224241 1e-05
-0.02058 0.0224244 1e-05
-0.0206 0.0224245 1e-05
-0.0205 0.0251 1e-05
-0.02052 0.0251003 1e-05
-0.02054 0.0251005 1e-05
-0.02056 0.0251007 1e-05
-0.02058 0.0251008 1e-05
-0.0206 0.0251008 1e-05
-0.0205 0.001 1e-05
-0.0203632 0.00100536 1e-05
-0.0202266 0.00101331 1e-05
-0.0200901 0.00102296 1e-05
-0.0200427 0.00102682 1e-05
-0.0198376 0.00104418 1e-05
-0.0196338 0.00107322 1e-05
-0.0194327 0.00111734 1e-05
-0.0192368 0.00118024 1e-05
-0.0190172 0.00124951 1e-05
-0.0189002 0.00128348 1e-05
-0.0187827 0.00131598 1e-05
-0.0186649 0.001347 1e-05
-0.0185469 0.001377 1e-05
-0.0183807 0.00141936 1e-05
-0.0182041 0.00146458 1e-05
-0.0180267 0.00150692 1e-05
-0.0178487 0.0015464 1e-05
-0.0176703 0.00158389 1e-05
-0.0174976 0.00161991 1e-05
-0.0172846 0.00166394 1e-05
-0.0170715 0.00170741 1e-05
-0.0168583 0.00175029 1e-05
-0.0166449 0.00179219 1e-05
-0.0163945 0.00184007 1e-05
-0.0163234 0.00185324 1e-05
-0.0162522 0.00186629 1e-05
-0.016181 0.00187921 1e-05
-0.0161097 0.00189201 1e-05
-0.0160387 0.0019046 1e-05
-0.0157586 0.0019535 1e-05
-0.0154779 0.00199931 1e-05
-0.0151968 0.00204225 1e-05
-0.0149154 0.00208283 1e-05
-0.0146381 0.00212134 1e-05
-0.0143838 0.00215527 1e-05
-0.0141293 0.00218766 1e-05
-0.0138747 0.00221855 1e-05
-0.0136198 0.00224797 1e-05
-0.0132934 0.00228369 1e-05
-0.0132791 0.00228515 1e-05
-0.0132648 0.0022866 1e-05
-0.0132504 0.00228805 1e-05
-0.0132361 0.0022895 1e-05
-0.0132214 0.00229098 1e-05
-0.0129776 0.00231543 1e-05
-0.0127337 0.00233865 1e-05
-0.0124897 0.00236061 1e-05
-0.0122456 0.00238129 1e-05
-0.0120025 0.00240058 1e-05
-0.0117547 0.00241909 1e-05
-0.0115067 0.00243627 1e-05
-0.0112587 0.00245231 1e-05
-0.0110106 0.00246734 1e-05
-0.0107632 0.00248136 1e-05
-0.0105252 0.00249391 1e-05
-0.0102872 0.00250547 1e-05
-0.0100491 0.00251602 1e-05
-0.00981105 0.00252575 1e-05
-0.00957337 0.00253471 1e-05
-0.00934491 0.00254261 1e-05
-0.00911643 0.00254974 1e-05
-0.00888792 0.0025561 1e-05
-0.0086594 0.00256171 1e-05
-0.00843108 0.00256668 1e-05
-0.00821175 0.00257084 1e-05
-0.00799241 0.00257439 1e-05
-0.00777306 0.00257731 1e-05
-0.0075537 0.00257952 1e-05
-0.00733443 0.00258114 1e-05
-0.00712387 0.00258212 1e-05
-0.0069133 0.00258255 1e-05
-0.00670273 0.00258243 1e-05
-0.00649216 0.00258162 1e-05
-0.0062816 0.00258017 1e-05
-0.00607944 0.00257819 1e-05
-0.0058773 0.00257565 1e-05
-0.00567516 0.00257256 1e-05
-0.00547303 0.00256874 1e-05
-0.00527083 0.00256419 1e-05
-0.00507675 0.00255912 1e-05
-0.00488269 0.00255342 1e-05
-0.00468865 0.00254711 1e-05
-0.00449464 0.00253997 1e-05
-0.00430044 0.0025319 1e-05
-0.00411412 0.00252329 1e-05
-0.00392784 0.00251388 1e-05
-0.00374159 0.00250368 1e-05
-0.0035554 0.00249254 1e-05
-0.00336883 0.00248015 1e-05
-0.00318995 0.00246711 1e-05
-0.00301115 0.00245299 1e-05
-0.00283245 0.00243774 1e-05
-0.00265386 0.0024212 1e-05
-0.00247443 0.00240314 1e-05
-0.0023027 0.00238425 1e-05
-0.00213114 0.00236383 1e-05
-0.00195982 0.00234153 1e-05
-0.00178875 0.00231737 1e-05
-0.00161577 0.00229105 1e-05
-0.00161569 0.00229103 1e-05
-0.0016156 0.00229102 1e-05
-0.00161552 0.002291 1e-05
-0.00161544 0.00229099 1e-05
-0.00161535 0.00229098 1e-05
-0.00145056 0.00226407 1e-05
-0.00128618 0.00223481 1e-05
-0.00112222 0.00220325 1e-05
-0.000958707 0.00216946 1e-05
-0.000791418 0.00213235 1e-05
-0.000633135 0.00209424 1e-05
-0.000475556 0.00205331 1e-05
-0.000318719 0.00200963 1e-05
-0.000162835 0.00196265 1e-05
0 0.0019095 1e-05
3.73308e-05 0.0018963 1e-05
7.45617e-05 0.00188283 1e-05
0.000111694 0.00186908 1e-05
0.000148729 0.00185508 1e-05
0.000179033 0.00184338 1e-05
0.000248904 0.00181593 1e-05
0.000318364 0.00178747 1e-05
0.000387398 0.00175799 1e-05
0.000455993 0.00172749 1e-05
0.000528387 0.00169411 1e-05
0.000634886 0.00164313 1e-05
0.000740278 0.0015899 1e-05
0.00084451 0.00153443 1e-05
0.00094762 0.0014769 1e-05
0.00101983 0.00143468 1e-05
0.00102804 0.00142972 1e-05
0.00103624 0.00142475 1e-05
0.00104443 0.00141975 1e-05
0.00105262 0.00141475 1e-05
0.00106088 0.00140967 1e-05
0.00116821 0.00134348 1e-05
0.00127404 0.00127492 1e-05
0.00137827 0.00120396 1e-05
0.00148099 0.00113083 1e-05
0.00159663 0.00104511 1e-05
0.00159681 0.00104497 1e-05
0.00159699 0.00104483 1e-05
0.00159716 0.00104469 1e-05
0.00159734 0.00104456 1e-05
0.00159752 0.00104442 1e-05
0.00169217 0.000970859 1e-05
0.00178541 0.000895534 1e-05
0.00187718 0.000818411 1e-05
0.00196753 0.000739634 1e-05
0.00203792 0.000676366 1e-05
0.002058 0.000657861 1e-05
0.002078 0.000639267 1e-05
0.00209791 0.000620583 1e-05
0.00211777 0.000601835 1e-05
0.00213833 0.000582304 1e-05
0.00219144 0.000531502 1e-05
0.00224406 0.000480183 1e-05
0.00229616 0.00042834 1e-05
0.00234773 0.000375967 1e-05
0.00239401 0.000328255 1e-05
0.00245188 0.000267774 1e-05
0.00250911 0.000206694 1e-05
0.00256571 0.000145029 1e-05
0.0026218 8.28987e-05 1e-05
0.00268334 1.35501e-05 1e-05
0.0026857 1.08401e-05 1e-05
0.00268805 8.12909e-06 1e-05
0.00269041 5.41706e-06 1e-05
0.00269276 2.70403e-06 1e-05
0.00269511 0 1e-05
0.002759 -7.37367e-05 1e-05
0.00282228 -0.000148005 1e-05
0.00288492 -0.000222813 1e-05
0.0029469 -0.000298172 1e-05
0.00300397 -0.000368654 1e-05
0.00304969 -0.000425958 1e-05
0.00309511 -0.000483508 1e-05
0.00314021 -0.0005413 1e-05
0.00318507 -0.000599288 1e-05
0.00323259 -0.000661292 1e-05
0.00325061 -0.000685052 1e-05
0.00326859 -0.000708852 1e-05
0.00328651 -0.000732692 1e-05
0.00330438 -0.000756572 1e-05
0.00332191 -0.000780089 1e-05
0.00339005 -0.000871876 1e-05
0.00345759 -0.000964106 1e-05
0.00352451 -0.00105679 1e-05
0.00359088 -0.00114986 1e-05
0.00365375 -0.00123896 1e-05
0.00368022 -0.00127687 1e-05
0.00370662 -0.00131485 1e-05
0.00373294 -0.00135287 1e-05
0.0037592 -0.00139093 1e-05
0.00378611 -0.00143002 1e-05
0.00383007 -0.00149411 1e-05
0.00387382 -0.00155835 1e-05
0.00391735 -0.00162273 1e-05
0.00396065 -0.00168727 1e-05
0.00400279 -0.00175043 1e-05
0.00407102 -0.00185329 1e-05
0.00413883 -0.00195643 1e-05
0.00420621 -0.00205984 1e-05
0.00427331 -0.00216344 1e-05
0.00434393 -0.00227315 1e-05
0.00434996 -0.00228258 1e-05
0.00435598 -0.00229201 1e-05
0.00436201 -0.00230145 1e-05
0.00436802 -0.00231089 1e-05
0.00437402 -0.0023203 1e-05
0.00445487 -0.00244725 1e-05
0.00453527 -0.00257448 1e-05
0.00461527 -0.00270197 1e-05
0.00469492 -0.00282968 1e-05
0.00477279 -0.00295497 1e-05
0.00479945 -0.00299802 1e-05
0.00482609 -0.00304108 1e-05
0.00485269 -0.00308416 1e-05
0.00487929 -0.00312724 1e-05
0.00490609 -0.00317064 1e-05
0.00496671 -0.00326884 1e-05
0.00502718 -0.00336713 1e-05
0.00508751 -0.00346551 1e-05
0.0051477 -0.00356397 1e-05
0.00520733 -0.00366161 1e-05
0.00526039 -0.00374853 1e-05
0.00531341 -0.00383548 1e-05
0.00536639 -0.00392245 1e-05
0.00541939 -0.00400941 1e-05
0.00547262 -0.00409663 1e-05
0.00551559 -0.00416693 1e-05
0.00555852 -0.00423725 1e-05
0.00560142 -0.00430758 1e-05
0.0056443 -0.00437793 1e-05
0.00568712 -0.00444811 1e-05
0.0057584 -0.00456486 1e-05
0.00582974 -0.00468159 1e-05
0.00590112 -0.00479828 1e-05
0.00597264 -0.00491489 1e-05
0.00604356 -0.00503007 1e-05
0.00607981 -0.00508871 1e-05
0.00611607 -0.00514734 1e-05
0.00615234 -0.00520597 1e-05
0.00618863 -0.00526458 1e-05
0.00622503 -0.00532326 1e-05
0.00630381 -0.00545002 1e-05
0.00638278 -0.00557667 1e-05
0.00646195 -0.00570319 1e-05
0.00654139 -0.00582955 1e-05
0.00661893 -0.00595208 1e-05
0.00666283 -0.006021 1e-05
0.00670679 -0.00608989 1e-05
0.0067508 -0.00615875 1e-05
0.00679489 -0.00622755 1e-05
0.00683937 -0.00629671 1e-05
0.00691125 -0.00640811 1e-05
0.00698338 -0.00651934 1e-05
0.00705578 -0.00663041 1e-05
0.00712846 -0.00674128 1e-05
0.00719878 -0.00684774 1e-05
0.00726948 -0.006954 1e-05
0.0073404 -0.00706011 1e-05
0.00741154 -0.00716607 1e-05
0.007483 -0.00727182 1e-05
0.00755599 -0.00737909 1e-05
0.00760142 -0.00744538 1e-05
0.00764697 -0.00751158 1e-05
0.00769266 -0.00757769 1e-05
0.00773847 -0.00764371 1e-05
0.00778313 -0.00770772 1e-05
0.00790091 -0.00787568 1e-05
0.00801946 -0.00804311 1e-05
0.00813878 -0.00820998 1e-05
0.0082591 -0.00837613 1e-05
0.00837203 -0.00853003 1e-05
0.00837975 -0.00854041 1e-05
0.00838746 -0.00855077 1e-05
0.00839519 -0.00856114 1e-05
0.00840291 -0.00857151 1e-05
0.00841066 -0.00858189 1e-05
0.00852163 -0.00873051 1e-05
0.00863342 -0.00887852 1e-05
0.00874606 -0.00902588 1e-05
0.00885956 -0.00917258 1e-05
0.00896551 -0.00930766 1e-05
0.00903014 -0.00938899 1e-05
0.00909503 -0.00947012 1e-05
0.00916019 -0.00955103 1e-05
0.00922564 -0.00963169 1e-05
0.00929327 -0.00971439 1e-05
0.00934734 -0.00977997 1e-05
0.0094016 -0.00984539 1e-05
0.00945606 -0.00991065 1e-05
0.00951071 -0.00997574 1e-05
0.0095636 -0.0100383 1e-05
[...]
POINT_DATA 12278
 FIELD attributes 1
U 3 12278 float
9.72339 	0.381311 	0 9.77871 	0.305049 	0 9.83405 	0.228765 	0 9.8894 	0.152465 	0 9.94476 	0.0761532 	0 10 	0 	0
10.0671 	0.375483 	0 10.0537 	0.300387 	0 10.0403 	0.225271 	0 10.0268 	0.150141 	0 10.0134 	0.0750009 	0 10 	0 	0
10.0364 	0.141572 	0 10.0291 	0.113304 	0 10.0218 	0.085089 	0 10.0145 	0.0569263 	0 10.0071 	0.0288164 	0 10 	0 	0
10.0137 	0.111519 	0 10.011 	0.0892151 	0 10.0082 	0.0669108 	0 10.0055 	0.0446062 	0 10.0027 	0.0223012 	0 10 	0 	0
10.0097 	0.0196534 	0 10.0078 	0.0157227 	0 10.0058 	0.011792 	0 10.0039 	0.00786134 	0 10.0019 	0.00393066 	0 10 	0 	0
10.0102 	-0.0372875 	0 10.0082 	-0.02983 	0 10.0061 	-0.0223725 	0 10.0041 	-0.014915 	0 10.002 	-0.00745741 	0 10 	0 	0
10.0174 	-0.148997 	0 10.0139 	-0.119197 	0 10.0105 	-0.0893967 	0 10.007 	-0.0595953 	0 10.0035 	-0.0297932 	0 10 	0 	0
10.0362 	-0.265901 	0 10.029 	-0.212721 	0 10.0217 	-0.159534 	0 10.0145 	-0.106342 	0 10.0072 	-0.053146 	0 10 	0 	0
10.0563 	-0.387167 	0 10.045 	-0.309734 	0 10.0338 	-0.23228 	0 10.0225 	-0.15481 	0 10.0112 	-0.0773281 	0 10 	0 	0
8.30133 	-0.114495 	0 8.4287 	-0.091596 	0 8.55659 	-0.0686962 	0 8.68498 	-0.0457957 	0 8.81385 	-0.0228949 	0 8.94315 	0 	0
9.72339 	0.381311 	0 9.5415 	0.555241 	0 9.39671 	0.663651 	0 9.26203 	0.754271 	0 9.2183 	0.780385 	0 8.95344 	1.27614 	0 8.70578 	1.91036 	0 8.48173 	2.72184 	0 8.46724 	2.67123 	0 8.47252 	2.45986 	0 8.50117 	2.35314 	0 8.52498 	2.2443 	0 8.51221 	2.16311 	0 8.42487 	2.14738 	0 8.30214 	2.12559 	0 8.30117 	1.9821 	0 8.28715 	1.83798 	0 8.21181 	1.72569 	0 8.035 	1.67507 	0 7.86306 	1.62575 	0 7.68323 	1.56759 	0 7.50177 	1.50875 	0 7.42793 	1.45839 	0 7.36148 	1.40771 	0 7.27865 	1.34671 	0 7.22249 	1.32376 	0 7.16614 	1.3007 	0 7.10958 	1.27753 	0 7.07928 	1.2544 	0 7.05291 	1.23121 	0 6.97394 	1.13838 	0 6.88841 	1.05226 	0 6.79883 	0.980329 	0 6.71191 	0.932083 	0 6.6228 	0.883658 	0 6.55089 	0.833774 	0 6.49229 	0.787587 	0 6.44246 	0.743855 	0 6.3887 	0.69909 	0 6.31694 	0.642265 	0 6.31477 	0.64017 	0 6.3132 	0.638345 	0 6.31172 	0.636559 	0 6.31023 	0.63477 	0 6.30868 	0.632931 	0 6.27132 	0.597061 	0 6.23151 	0.560862 	0 6.18922 	0.524331 	0 6.1444 	0.487462 	0 6.10943 	0.456251 	0 6.07602 	0.420968 	0 6.04571 	0.390994 	0 6.01701 	0.364549 	0 5.99443 	0.339599 	0 5.97316 	0.315194 	0 5.95246 	0.28906 	0 5.92972 	0.262717 	0 5.91348 	0.241656 	0 5.9034 	0.222651 	0 5.89182 	0.203584 	0 5.87917 	0.183517 	0 5.86498 	0.16335 	0 5.85627 	0.143785 	0 5.85337 	0.127396 	0 5.8492 	0.110981 	0 5.84297 	0.0943454 	0 5.8355 	0.0776689 	0 5.83341 	0.0589662 	0 5.83631 	0.0430919 	0 5.83801 	0.027218 	0 5.83718 	0.01192 	0 5.83535 	-0.00344697 	0 5.83921 	-0.0225489 	0 5.84733 	-0.0400409 	0 5.85425 	-0.0574789 	0 5.85861 	-0.0735463 	0 5.86186 	-0.0895877 	0 5.87122 	-0.110976 	0 5.88469 	-0.132515 	0 5.89666 	-0.153982 	0 5.90651 	-0.173349 	0 5.91508 	-0.192647 	0 5.92941 	-0.218106 	0 5.94829 	-0.247063 	0 5.96528 	-0.27588 	0 5.98123 	-0.302113 	0 5.99552 	-0.328197 	0 6.01456 	-0.359812 	0 6.03867 	-0.400977 	0 6.06027 	-0.441899 	0 6.08261 	-0.480364 	0 6.10481 	-0.520988 	0 6.13012 	-0.567646 	0 6.1546 	-0.619718 	0 6.17873 	-0.679531 	0 6.20611 	-0.738528 	0 6.23746 	-0.811922 	0 6.26493 	-0.884779 	0 6.28858 	-0.957099 	0 6.3087 	-1.02981 	0 6.30871 	-1.02985 	0 6.30873 	-1.02991 	0 6.30874 	-1.02997 	0 6.30876 	-1.03002 	0 6.30877 	-1.03008 	0 6.33256 	-1.12727 	0 6.35111 	-1.22235 	0 6.36452 	-1.31537 	0 6.37528 	-1.41407 	0 6.38857 	-1.53828 	0 6.40637 	-1.66402 	0 6.41792 	-1.78768 	0 6.4058 	-1.9302 	2.62101e-20 6.36944 	-2.07916 	5.37311e-20 6.31929 	-2.23394 	8.12337e-20 6.31108 	-2.28439 	2.33967e-20 6.2989 	-2.33171 	5.85046e-21 6.28254 	-2.37572 	3.12745e-20 6.26562 	-2.41948 	5.73186e-20 6.25128 	-2.45516 	7.91929e-20 6.22489 	-2.55103 	1.78969e-19 6.19655 	-2.64634 	2.82907e-19 6.16627 	-2.74106 	3.9098e-19 6.12011 	-2.82222 	2.74344e-19 6.06356 	-2.90256 	6.24907e-20 5.98359 	-3.02223 	4.92743e-20 5.89843 	-3.13892 	3.61881e-20 5.80156 	-3.23677 	8.57247e-21 5.70029 	-3.33268 	-1.80435e-20 5.62541 	-3.3992 	-3.61729e-20 5.61626 	-3.40851 	-3.59649e-20 5.60708 	-3.41781 	-3.5742e-20 5.59782 	-3.42646 	-3.6893e-20 5.58843 	-3.43342 	-4.17012e-20 5.5789 	-3.44044 	-4.65551e-20 5.45901 	-3.53665 	-2.82865e-20 5.33379 	-3.6309 	-9.44512e-21 5.20775 	-3.70785 	1.27671e-22 5.08152 	-3.76675 	-1.81692e-22 4.93256 	-3.83203 	7.69302e-23 4.9323 	-3.83218 	4.40233e-23 4.93204 	-3.83233 	1.1116e-23 4.9318 	-3.83243 	1.95145e-23 4.93157 	-3.83251 	4.89837e-23 4.93134 	-3.83258 	7.84627e-23 4.80563 	-3.88192 	1.13181e-21 4.67584 	-3.92966 	2.48953e-21 4.54893 	-3.96616 	4.21736e-21 4.4313 	-3.98325 	6.34235e-21 4.33599 	-3.99562 	8.21297e-21 4.30564 	-4.00328 	1.3361e-20 4.27508 	-4.01087 	1.85471e-20 4.24977 	-4.01258 	9.22423e-21 4.22458 	-4.01394 	-8.28271e-22 4.19828 	-4.0153 	-1.1251e-20 4.12448 	-4.0226 	-6.36165e-20 4.0495 	-4.02939 	-1.15614e-19 3.97348 	-4.0355 	-1.658e-19 3.90932 	-4.02996 	-1.01564e-19 3.85051 	-4.02458 	-4.30497e-20 3.77293 	-4.02673 	4.17899e-21 3.69545 	-4.02598 	4.20014e-20 3.62355 	-4.01387 	3.42027e-20 3.55057 	-4.00127 	2.66747e-20 3.46852 	-3.98678 	1.86466e-20 3.46519 	-3.98636 	1.92703e-20 3.46186 	-3.98595 	1.98942e-20 3.45853 	-3.98553 	2.05181e-20 3.45539 	-3.98481 	2.10418e-20 3.45233 	-3.98397 	2.15242e-20 3.38419 	-3.97194 	1.41269e-20 3.314 	-3.95779 	7.41878e-21 3.2426 	-3.94293 	7.05263e-22 3.17081 	-3.91587 	6.16737e-21 3.10318 	-3.8891 	1.23507e-20 3.06108 	-3.87909 	3.47271e-20 3.01868 	-3.86769 	5.06299e-20 2.97707 	-3.84873 	2.33621e-20 2.93506 	-3.82953 	-3.8487e-21 2.88985 	-3.80883 	-3.27819e-20 2.87173 	-3.80228 	-3.88842e-20 2.85353 	-3.79567 	-4.49887e-20 2.83524 	-3.78902 	-5.10954e-20 2.81705 	-3.77996 	-5.72876e-20 2.79913 	-3.77044 	-6.33984e-20 2.74573 	-3.74938 	-1.07124e-19 2.69151 	-3.72782 	-1.50969e-19 2.6367 	-3.69718 	-1.46195e-19 2.58229 	-3.65979 	-8.81893e-20 2.52976 	-3.62369 	-3.27109e-20 2.51283 	-3.61476 	2.06691e-21 2.49586 	-3.60563 	3.52421e-20 2.47998 	-3.59323 	2.99867e-20 2.46404 	-3.58079 	2.47666e-20 2.44761 	-3.56797 	1.94463e-20 2.41708 	-3.54889 	5.65554e-20 2.38629 	-3.52962 	9.35852e-20 2.35524 	-3.51014 	1.30533e-19 2.32525 	-3.48564 	1.03447e-19 2.29585 	-3.46119 	7.23014e-20 2.25892 	-3.4355 	4.24489e-20 2.22153 	-3.40948 	1.2564e-20 2.18696 	-3.37662 	-2.9038e-21 2.15215 	-3.34341 	-1.81103e-20 2.11502 	-3.30808 	-3.42162e-20 2.11131 	-3.30523 	-3.17952e-20 2.1076 	-3.30237 	-2.9377e-20 2.10389 	-3.2995 	-2.69616e-20 2.10039 	-3.29608 	-3.40052e-20 2.09691 	-3.29264 	-4.13453e-20 2.0602 	-3.26035 	-1.64566e-19 2.02447 	-3.22602 	-2.56555e-19 1.98942 	-3.18991 	-2.99652e-19 1.95718 	-3.14902 	-1.93317e-19 1.92542 	-3.1088 	-8.8984e-20 1.91682 	-3.09911 	-7.78911e-20 1.90819 	-3.08941 	-6.67939e-20 1.90085 	-3.07856 	-5.65208e-20 1.89382 	-3.06745 	-4.64384e-20 1.88672 	-3.05626 	-3.62803e-20 1.8648 	-3.03088 	-1.17433e-20 1.84276 	-3.0054 	1.2815e-20 1.82117 	-2.97924 	2.99887e-20 1.80214 	-2.95027 	1.2155e-20 1.78325 	-2.92153 	-5.51514e-21 1.76986 	-2.90256 	-2.11342e-20 1.75643 	-2.88357 	-3.67414e-20 1.74519 	-2.86328 	-1.81093e-20 1.73489 	-2.84248 	1.47237e-20 1.72459 	-2.82164 	4.76631e-20 1.71227 	-2.80444 	1.21612e-20 1.69992 	-2.78723 	-2.32905e-20 1.6882 	-2.76954 	-3.49068e-20 1.67813 	-2.75069 	1.29689e-20 1.66809 	-2.7319 	6.07134e-20 1.65476 	-2.70769 	1.97476e-19 1.64146 	-2.68352 	3.34178e-19 1.63054 	-2.65857 	2.96373e-19 1.62138 	-2.63314 	1.33618e-19 1.61247 	-2.6081 	-2.78273e-20 1.60466 	-2.59474 	-5.73804e-20 1.59686 	-2.58138 	-8.69414e-20 1.58987 	-2.56768 	-8.97858e-20 1.58399 	-2.55352 	-5.62876e-20 1.57813 	-2.53936 	-2.27627e-20 1.56814 	-2.51485 	-2.46246e-20 1.55827 	-2.49043 	-2.65264e-20 1.55033 	-2.46588 	-1.93332e-20 1.54489 	-2.44119 	-5.03521e-22 1.53982 	-2.41738 	1.77452e-20 1.53318 	-2.40289 	2.97195e-20 1.52656 	-2.38843 	4.16892e-20 1.52125 	-2.37374 	4.57204e-20 1.5169 	-2.35891 	4.40968e-20 1.51258 	-2.34404 	4.24433e-20 1.50734 	-2.32431 	2.55664e-20 1.50223 	-2.30469 	8.66396e-21 1.4982 	-2.28527 	-3.1307e-21 1.49685 	-2.26623 	-1.11907e-21 1.49575 	-2.24807 	8.13426e-22 1.48878 	-2.22755 	7.62593e-20 1.48192 	-2.20713 	1.51932e-19 1.47765 	-2.18687 	1.25792e-19 1.47432 	-2.16677 	6.7809e-20 1.4711 	-2.14648 	8.99852e-21 1.46989 	-2.13594 	-2.33591e-20 1.46875 	-2.12546 	-5.56732e-20 1.46786 	-2.11513 	-8.19977e-20 1.46939 	-2.10625 	-3.64826e-20 1.47096 	-2.09768 	7.88494e-21 1.46383 	-2.06747 	4.60809e-21 1.457 	-2.03754 	1.31347e-21 1.45623 	-2.01097 	-2.34567e-20 1.4568 	-1.98526 	-5.17329e-20 1.45941 	-1.9623 	-7.48614e-20 1.45893 	-1.96033 	-6.85156e-20 1.45846 	-1.95837 	-6.22245e-20 1.45841 	-1.95661 	-6.69744e-20 1.45837 	-1.95486 	-7.1722e-20 1.45832 	-1.9531 	-7.648e-20 1.45644 	-1.92818 	-2.09494e-19 1.45494 	-1.90356 	-3.41774e-19 1.45416 	-1.87952 	-4.46537e-19 1.45842 	-1.8593 	-1.91171e-19 1.46278 	-1.84094 	4.70833e-20 1.46063 	-1.82603 	1.11181e-19 1.4586 	-1.81122 	1.75062e-19 1.45952 	-1.79853 	1.42351e-19 1.46056 	-1.78595 	1.09741e-19 1.46177 	-1.77312 	7.63112e-20 1.46269 	-1.76356 	6.73875e-20 1.4637 	-1.75406 	5.84857e-20 1.46479 	-1.74463 	4.96061e-20 1.4674 	-1.73646 	5.16779e-20 1.47007 	-1.72869 	5.41933e-20 1.46955 	-1.70543 	2.95034e-20 1.46939 	-1.68245 	4.75156e-21 1.4723 	-1.66189 	2.02299e-20 1.4769 	-1.64243 	4.53158e-20 1.48285 	-1.62532 	6.85466e-20 1.48283 	-1.62125 	6.74274e-20 1.48291 	-1.61725 	6.75916e-20 1.4835 	-1.61363 	7.5155e-20 1.4841 	-1.61001 	8.27163e-20 1.48473 	-1.60637 	9.0366e-20 1.48743 	-1.59063 	1.39734e-19 1.49041 	-1.5751 	1.88981e-19 1.49365 	-1.55976 	2.38101e-19 1.49882 	-1.54627 	1.68534e-19 1.50423 	-1.53409 	8.22656e-20 1.50589 	-1.51459 	1.55639e-19 1.50839 	-1.49583 	2.03748e-19 1.51301 	-1.47901 	1.6189e-19 1.51798 	-1.46244 	1.20563e-19 1.52368 	-1.44495 	7.6771e-20 1.52371 	-1.44488 	7.65377e-20 1.52373 	-1.44482 	7.63043e-20 1.52375 	-1.44476 	7.60711e-20 1.52378 	-1.4447 	7.63812e-20 1.52381 	-1.44464 	7.69294e-20 1.52821 	-1.42762 	1.2652e-19 1.53302 	-1.41087 	1.74563e-19 1.5382 	-1.39438 	2.22214e-19 1.54496 	-1.37967 	1.8424e-19 1.55206 	-1.36675 	1.17112e-19 1.55539 	-1.34914 	2.03139e-19 1.5596 	-1.33242 	2.39605e-19 1.56524 	-1.31728 	1.74862e-19 1.57122 	-1.30238 	1.10333e-19 1.57758 	-1.28884 	3.78276e-20 1.57781 	-1.28784 	3.75741e-20 1.57808 	-1.28689 	3.67379e-20 1.5784 	-1.286 	3.51668e-20 1.57873 	-1.28511 	3.35954e-20 1.57905 	-1.28421 	3.20148e-20 1.58427 	-1.27027 	-1.34795e-20 1.58979 	-1.25653 	-5.88946e-20 1.5956 	-1.24298 	-1.04228e-19 1.6023 	-1.23064 	-8.93438e-20 1.60936 	-1.21992 	-3.00626e-20 1.6138 	-1.2044 	-7.54478e-20 1.61856 	-1.18909 	-1.21246e-19 1.62464 	-1.17571 	-1.03831e-19 1.63194 	-1.16305 	-6.09355e-20 1.63997 	-1.15167 	3.29651e-22 1.64225 	-1.14484 	2.88165e-20 1.64487 	-1.13851 	2.83052e-20 1.64773 	-1.13254 	7.12767e-21 1.65066 	-1.12662 	-1.3999e-20 1.65379 	-1.12044 	-3.61281e-20 1.65743 	-1.11362 	-6.80381e-20 1.66116 	-1.10685 	-9.98366e-20 1.66498 	-1.10013 	-1.31523e-19 1.66902 	-1.09385 	-1.31084e-19 1.67326 	-1.08837 	-7.98818e-20 1.6784 	-1.07463 	-1.11919e-19 1.68443 	-1.06137 	-1.36111e-19 1.69176 	-1.04897 	-1.45551e-19 1.69994 	-1.03836 	-1.35222e-19 1.70803 	-1.02839 	-1.25233e-19 1.7138 	-1.01488 	-2.75535e-19 1.72007 	-1.00219 	-3.50358e-19 1.72695 	-0.990746 	-2.96285e-19 1.7341 	-0.979466 	-2.42721e-19 1.7424 	-0.96939 	-1.1607e-19 1.7445 	-0.965048 	-8.25091e-20 1.74675 	-0.961158 	-8.47265e-20 1.74906 	-0.957402 	-9.6605e-20 1.7514 	-0.953663 	-1.08435e-19 1.75388 	-0.94978 	-1.20725e-19 1.75874 	-0.942426 	-1.24333e-19 1.76372 	-0.935139 	-1.27914e-19 1.76882 	-0.927919 	-1.31468e-19 1.77406 	-0.920988 	-1.29658e-19 1.77939 	-0.915223 	-1.05276e-19 1.78544 	-0.903292 	-1.32886e-19 1.79249 	-0.891935 	-1.44779e-19 1.80043 	-0.881083 	-1.43551e-19 1.80875 	-0.872015 	-1.02971e-19 1.81703 	-0.863484 	-6.09454e-20 1.82364 	-0.851793 	-1.64905e-19 1.83052 	-0.840267 	-2.67004e-19 1.83768 	-0.830574 	-2.25688e-19 1.84589 	-0.821469 	-1.27945e-19 1.85457 	-0.813023 	4.39306e-23 1.86119 	-0.802466 	1.42222e-22 1.86797 	-0.793541 	1.07604e-22 1.87494 	-0.78476 	6.89619e-23 1.8821 	-0.776079 	2.98907e-23 1.89048 	-0.766309 	-1.50846e-23 1.89085 	-0.765893 	7.0858e-22 1.89123 	-0.765477 	1.43177e-21 1.89161 	-0.765062 	2.15449e-21 1.89199 	-0.764647 	2.87673e-21 1.89236 	-0.764313 	4.21692e-22 1.89984 	-0.754859 	-2.52731e-20 1.90763 	-0.745576 	-4.71427e-20 1.91565 	-0.736404 	-6.88339e-20 1.92388 	-0.727353 	-8.98864e-20 1.93178 	-0.720366 	-3.12018e-20 1.93867 	-0.71041 	-2.11312e-20 1.94624 	-0.700893 	-1.39323e-20 1.95462 	-0.69191 	-1.04189e-20 1.96279 	-0.684637 	-1.59874e-20 1.97093 	-0.677769 	-2.24525e-20 1.97824 	-0.668063 	5.39393e-20 1.98578 	-0.658457 	1.30444e-19 1.99321 	-0.650369 	1.32359e-19 2.00152 	-0.643423 	6.57227e-20 2.00986 	-0.636681 	1.63256e-22 2.01757 	-0.627228 	9.70971e-23 2.0251 	-0.618851 	-1.11784e-20 2.03252 	-0.61131 	-3.10242e-20 2.04012 	-0.603848 	-5.08463e-20 2.04859 	-0.597209 	-6.38764e-20 2.0555 	-0.589504 	-1.06453e-19 2.06203 	-0.582993 	-1.10009e-19 2.06869 	-0.576539 	-1.13625e-19 2.07549 	-0.570143 	-1.17299e-19 2.08346 	-0.562862 	-1.21588e-19 2.08422 	-0.562197 	-1.22771e-19 2.08499 	-0.561532 	-1.23955e-19 2.08575 	-0.560868 	-1.25137e-19 2.08652 	-0.560205 	-1.26319e-19 2.08722 	-0.559666 	-1.22311e-19 2.09468 	-0.552366 	-9.43327e-20 2.10237 	-0.545208 	-6.50891e-20 2.11024 	-0.538119 	-3.58834e-20 2.11828 	-0.5311 	-6.71577e-21 2.12555 	-0.525609 	1.79228e-22 2.1327 	-0.517843 	6.74865e-20 2.14053 	-0.510862 	8.63889e-20 2.14854 	-0.503969 	1.03528e-19 2.1562 	-0.497892 	8.43364e-20 2.16321 	-0.492974 	1.49085e-20 2.17059 	-0.485451 	-5.50318e-20 2.1782 	-0.478077 	-1.18726e-19 2.18627 	-0.471436 	-1.35001e-19 2.19319 	-0.466571 	-6.72701e-20 2.20017 	-0.46179 	-7.25097e-23 2.20775 	-0.45451 	-3.96074e-23 2.21551 	-0.447288 	-6.87729e-24 2.22263 	-0.441424 	0 2.22947 	-0.436706 	0 2.23638 	-0.432063 	0 2.24413 	-0.425024 	0 2.2518 	-0.418306 	0 2.2583 	-0.41307 	0 2.265 	-0.408295 	-1.0152e-20 2.2718 	-0.403789 	-2.51739e-20 2.27969 	-0.396991 	-6.23807e-21 2.2866 	-0.391353 	-6.35094e-21 2.2931 	-0.386303 	-1.58169e-20 2.29972 	-0.381317 	-2.67454e-20 2.30639 	-0.376949 	-6.6487e-20 2.3141 	-0.370636 	-2.84734e-20 2.32045 	-0.365734 	-3.02628e-20 2.32692 	-0.360866 	-3.20241e-20 2.33351 	-0.356031 	-3.37574e-20 2.3401 	-0.351514 	-4.64714e-20 2.34635 	-0.34665 	-3.69117e-20 2.35196 	-0.342433 	-3.83629e-20 2.35766 	-0.338241 	-3.97927e-20 2.36346 	-0.334073 	-4.1201e-20 2.37031 	-0.329251 	-4.28151e-20 2.37083 	-0.328896 	-4.26972e-20 2.37135 	-0.328542 	-4.25795e-20 2.37187 	-0.328188 	-4.2462e-20 2.37239 	-0.327834 	-4.23446e-20 2.37285 	-0.327534 	-4.25215e-20 2.37901 	-0.322944 	-4.92061e-20 2.38528 	-0.318408 	-5.37553e-20 2.39165 	-0.3139 	-5.82276e-20 2.39813 	-0.309419 	-6.26235e-20 2.40377 	-0.305691 	-3.89675e-20 2.4101 	-0.300976 	-7.51599e-20 2.41626 	-0.296616 	-8.72932e-20 2.42253 	-0.292281 	-9.93677e-20 2.4289 	-0.287971 	-1.11384e-19 2.43354 	-0.284984 	-7.13079e-20 2.44012 	-0.280199 	-1.18582e-19 2.44616 	-0.276012 	-1.21109e-19 2.4523 	-0.271848 	-1.23589e-19 2.45819 	-0.267943 	-1.19002e-19 2.46216 	-0.265379 	-7.5347e-20 2.46877 	-0.260762 	-1.17876e-19 2.47494 	-0.256557 	-1.28012e-19 2.48094 	-0.252561 	-1.22407e-19 2.48588 	-0.249299 	-9.48012e-20 2.48962 	-0.246841 	-4.31996e-20 2.4962 	-0.242427 	4.3158e-20 2.50259 	-0.238207 	1.03852e-19 2.50843 	-0.234378 	1.09348e-19 2.51241 	-0.231688 	5.03687e-20 2.5159 	-0.229333 	-2.66973e-20 2.52244 	-0.225119 	-1.75938e-20 2.52908 	-0.220923 	-8.50025e-21 2.5346 	-0.217339 	8.66919e-21 2.53778 	-0.215071 	2.59576e-20 2.54101 	-0.212817 	4.32208e-20 2.54749 	-0.208798 	-4.33238e-20 2.55407 	-0.204796 	-1.29881e-19 2.55906 	-0.201574 	-1.41246e-19 2.56198 	-0.199407 	-7.10844e-20 2.56495 	-0.197251 	-1.02119e-21 2.57136 	-0.193424 	-1.07562e-22 2.57786 	-0.189611 	7.85266e-22 2.58237 	-0.186726 	-1.56711e-20 2.58502 	-0.184657 	-4.94178e-20 2.58773 	-0.182598 	-8.31395e-20 2.59404 	-0.178957 	-4.76837e-20 2.60046 	-0.17533 	-1.22436e-20 2.60453 	-0.172754 	-8.54667e-21 2.60692 	-0.170781 	-2.59303e-20 2.60936 	-0.168817 	-4.32983e-20 2.61557 	-0.165358 	-2.59876e-20 2.62187 	-0.161915 	-8.7098e-21 2.62548 	-0.159637 	-9.45426e-21 2.62768 	-0.15774 	-2.60538e-20 2.62985 	-0.155869 	-4.33793e-20 2.63595 	-0.152588 	-1.64887e-19 2.6416 	-0.149534 	-2.61796e-19 2.64504 	-0.147374 	-2.57104e-19 2.64731 	-0.145496 	-1.64748e-19 2.64921 	-0.143714 	-4.33598e-20 2.6552 	-0.140607 	-2.59817e-20 2.66021 	-0.1379 	-8.62116e-21 2.66349 	-0.135856 	8.70894e-21 2.66584 	-0.134009 	2.1308e-20 2.66748 	-0.132317 	3.02501e-20 2.67335 	-0.129378 	9.13189e-20 2.67774 	-0.12698 	1.18693e-19 2.68085 	-0.125048 	1.17019e-19 2.68329 	-0.123245 	9.21108e-20 2.68467 	-0.121639 	3.16741e-20 2.69041 	-0.118864 	2.32321e-20 2.69422 	-0.116741 	1.48063e-20 2.69716 	-0.114917 	6.38557e-21 2.6997 	-0.113168 	0 2.70082 	-0.111645 	0 2.70642 	-0.109029 	0 2.70967 	-0.10715 	1.47194e-20 2.71245 	-0.105431 	3.255e-20 2.71507 	-0.103743 	5.03654e-20 2.71594 	-0.102302 	6.81075e-20 2.72141 	-0.0998386 	1.90105e-19 2.72413 	-0.098176 	1.93622e-19 2.72675 	-0.0965576 	1.91095e-19 2.72941 	-0.0949424 	1.88618e-19 2.73008 	-0.0935749 	7.02143e-20 2.73522 	-0.091312 	5.32001e-20 2.73763 	-0.0897882 	3.6239e-20 2.74009 	-0.0882673 	1.92697e-20 2.74259 	-0.0867491 	2.29228e-21 2.74327 	-0.085433 	1.46994e-20 2.74796 	-0.0833868 	-4.34235e-24 2.75021 	-0.0819573 	-2.98886e-23 2.75251 	-0.0805303 	-5.54246e-23 2.75485 	-0.0791056 	-8.09505e-23 2.75553 	-0.0778452 	6.38959e-21 2.7598 	-0.075994 	-5.08102e-20 2.7619 	-0.0746552 	-4.9511e-20 2.76404 	-0.0733185 	-4.82393e-20 2.76622 	-0.0719838 	-4.69949e-20 2.76691 	-0.070782 	-5.64416e-21 2.77078 	-0.0691064 	8.55967e-23 2.77274 	-0.0678546 	6.04902e-23 2.77473 	-0.0666046 	3.5374e-23 2.77676 	-0.0653564 	1.02481e-23 2.77744 	-0.0642154 	0 2.78094 	-0.0626977 	1.11901e-20 2.78276 	-0.0615294 	3.75138e-20 2.78461 	-0.0603627 	6.38287e-20 2.78649 	-0.0591974 	9.01349e-20 2.78716 	-0.0581184 	1.07497e-19 2.79033 	-0.0567429 	1.73102e-19 2.792 	-0.0556546 	1.72023e-19 2.79371 	-0.0545675 	1.70973e-19 2.79545 	-0.0534817 	1.6995e-19 2.79611 	-0.052465 	1.02487e-19 2.79896 	-0.0512178 	8.75818e-20 2.80051 	-0.0502058 	5.31479e-20 2.80208 	-0.0491949 	1.87086e-20 2.80368 	-0.0481851 	-1.57362e-20 2.80432 	-0.0472306 	-4.66907e-20 2.80689 	-0.0460991 	-9.02119e-20 2.80831 	-0.04516 	-8.9004e-20 2.80975 	-0.0442218 	-8.78298e-20 2.81122 	-0.0432846 	-8.66895e-20 2.81183 	-0.0423916 	-3.70506e-20 2.81414 	-0.0413646 	-4.95362e-20 2.81544 	-0.040495 	-3.17153e-20 2.81676 	-0.0396261 	-1.39123e-20 2.81811 	-0.0387579 	3.87291e-21 2.81868 	-0.0379252 	4.31045e-20 2.82077 	-0.0369929 	4.9863e-20 2.82195 	-0.0361892 	6.73342e-20 2.82315 	-0.0353862 	8.47971e-20 2.82438 	-0.0345839 	1.02252e-19 2.82492 	-0.0338099 	1.22067e-19 2.82679 	-0.0329634 	1.4623e-19 2.82786 	-0.0322224 	1.37007e-19 2.82896 	-0.031482 	1.27806e-19 2.83007 	-0.0307421 	1.18626e-19 2.83056 	-0.0300251 	8.16896e-20 2.83225 	-0.0292564 	5.80655e-20 2.83322 	-0.0285748 	3.2317e-20 2.83421 	-0.0278937 	6.56666e-21 2.83522 	-0.027213 	-1.91855e-20 2.83566 	-0.0265509 	-4.1047e-20 2.83718 	-0.0258531 	-5.61658e-20 2.83805 	-0.0252277 	-3.83916e-20 2.83894 	-0.0246026 	-2.06436e-20 2.83986 	-0.0239779 	-2.92155e-21 2.84024 	-0.0233685 	4.84836e-20 2.84161 	-0.0227353 	1.02323e-19 2.8424 	-0.0221629 	1.10003e-19 2.8432 	-0.0215908 	1.17727e-19 2.84402 	-0.021019 	1.25495e-19 2.84433 	-0.0204598 	8.8623e-20 2.84558 	-0.0198856 	7.17996e-20 2.84628 	-0.0193631 	6.32558e-20 2.847 	-0.0188409 	5.47079e-20 2.84773 	-0.0183189 	4.61558e-20 2.84798 	-0.0178076 	3.76064e-20 2.84913 	-0.0172873 	1.44067e-20 2.84975 	-0.0168118 	1.47543e-20 2.85038 	-0.0163365 	1.50792e-20 2.85103 	-0.0158614 	1.53815e-20 2.85122 	-0.0153953 	4.14749e-20 2.85227 	-0.0149246 	3.9857