# vtk DataFile Version 2.0
track0
ASCII
DATASET POLYDATA
POINTS 12278 float
-0.0205 0.001 1e-05
-0.02052 0.000999216 1e-05
-0.02054 0.000998592 1e-05
-0.02056 0.000998126 1e-05
-0.02058 0.000997818 1e-05
-0.0206 0.000997665 1e-05
-0.0205 0.00367778 1e-05
-0.02052 0.00367703 1e-05
-0.02054 0.00367643 1e-05
-0.02056 0.00367599 1e-05
-0.02058 0.00367569 1e-05
-0.0206 0.00367554 1e-05
-0.0205 0.00635556 1e-05
-0.02052 0.00635527 1e-05
-0.02054 0.00635505 1e-05
-0.02056 0.00635488 1e-05
-0.02058 0.00635476 1e-05
-0.0206 0.00635471 1e-05
-0.0205 0.00903333 1e-05
-0.02052 0.00903311 1e-05
-0.02054 0.00903293 1e-05
-0.02056 0.0090328 1e-05
-0.02058 0.00903271 1e-05
-0.0206 0.00903266 1e-05
-0.0205 0.0117111 1e-05
-0.02052 0.0117111 1e-05
-0.02054 0.011711 1e-05
-0.02056 0.011711 1e-05
-0.02058 0.011711 1e-05
-0.0206 0.011711 1e-05
-0.0205 0.0143889 1e-05
-0.02052 0.014389 1e-05
-0.02054 0.014389 1e-05
-0.02056 0.0143891 1e-05
-0.02058 0.0143891 1e-05
-0.0206 0.0143891 1e-05
-0.0205 0.0170667 1e-05
-0.02052 0.017067 1e-05
-0.02054 0.0170672 1e-05
-0.02056 0.0170674 1e-05
-0.02058 0.0170675 1e-05
-0.0206 0.0170676 1e-05
-0.0205 0.0197444 1e-05
-0.02052 0.019745 1e-05
-0.02054 0.0197454 1e-05
-0.02056 0.0197457 1e-05
-0.02058 0.0197459 1e-05
-0.0206 0.019746 1e-05
-0.0205 0.0224222 1e-05
-0.02052 0.022423 1e-05
-0.02054 0.0224236 1e-05
-0.02056 0.0224241 1e-05
-0.02058 0.0224244 1e-05
-0.0206 0.0224245 1e-05
-0.0205 0.0251 1e-05
-0.02052 0.0251003 1e-05
-0.02054 0.0251005 1e-05
-0.02056 0.0251007 1e-05
-0.02058 0.0251008 1e-05
-0.0206 0.0251008 1e-05
-0.0205 0.001 1e-05
-0.0203632 0.00100536 1e-05
-0.0202266 0.00101331 1e-05
-0.0200901 0.00102296 1e-05
-0.0200427 0.00102682 1e-05
-0.0198376 0.00104418 1e-05
-0.0196338 0.00107322 1e-05
-0.0194327 0.00111734 1e-05
-0.0192368 0.00118024 1e-05
-0.0190172 0.00124951 1e-05
-0.0189002 0.00128348 1e-05
-0.0187827 0.00131598 1e-05
-0.0186649 0.001347 1e-05
-0.0185469 0.001377 1e-05
-0.0183807 0.00141936 1e-05
-0.0182041 0.00146458 1e-05
-0.0180267 0.00150692 1e-05
-0.0178487 0.0015464 1e-05
-0.0176703 0.00158389 1e-05
-0.0174976 0.00161991 1e-05
-0.0172846 0.00166394 1e-05
-0.0170715 0.00170741 1e-05
-0.0168583 0.00175029 1e-05
-0.0166449 0.00179219 1e-05
-0.0163945 0.00184007 1e-05
-0.0163234 0.00185324 1e-05
-0.0162522 0.00186629 1e-05
-0.016181 0.00187921 1e-05
-0.0161097 0.00189201 1e-05
-0.0160387 0.0019046 1e-05
-0.0157586 0.0019535 1e-05
-0.0154779 0.00199931 1e-05
-0.0151968 0.00204225 1e-05
-0.0149154 0.00208283 1e-05
-0.0146381 0.00212134 1e-05
-0.0143838 0.00215527 1e-05
-0.0141293 0.00218766 1e-05
-0.0138747 0.00221855 1e-05
-0.0136198 0.00224797 1e-05
-0.0132934 0.00228369 1e-05
-0.0132791 0.00228515 1e-05
-0.0132648 0.0022866 1e-05
-0.0132504 0.00228805 1e-05
-0.0132361 0.0022895 1e-05
-0.0132214 0.00229098 1e-05
-0.0129776 0.00231543 1e-05
-0.0127337 0.00233865 1e-05
-0.0124897 0.00236061 1e-05
-0.0122456 0.0023813 1e-05
-0.0120025 0.00240058 1e-05
-0.0117547 0.00241909 1e-05
-0.0115067 0.00243627 1e-05
-0.0112587 0.00245231 1e-05
-0.0110106 0.00246734 1e-05
-0.0107632 0.00248136 1e-05
-0.0105252 0.00249391 1e-05
-0.0102872 0.00250547 1e-05
-0.0100491 0.00251602 1e-05
-0.00981105 0.00252575 1e-05
-0.00957337 0.00253472 1e-05
-0.00934491 0.00254261 1e-05
-0.00911643 0.00254974 1e-05
-0.00888792 0.00255611 1e-05
-0.0086594 0.00256172 1e-05
-0.00843108 0.00256669 1e-05
-0.00821175 0.00257085 1e-05
-0.00799241 0.00257439 1e-05
-0.00777306 0.00257731 1e-05
-0.0075537 0.00257953 1e-05
-0.00733443 0.00258115 1e-05
-0.00712387 0.00258213 1e-05
-0.0069133 0.00258257 1e-05
-0.00670273 0.00258244 1e-05
-0.00649216 0.00258163 1e-05
-0.0062816 0.00258019 1e-05
-0.00607944 0.00257821 1e-05
-0.0058773 0.00257567 1e-05
-0.00567516 0.00257258 1e-05
-0.00547303 0.00256876 1e-05
-0.00527083 0.00256421 1e-05
-0.00507675 0.00255914 1e-05
-0.00488269 0.00255345 1e-05
-0.00468865 0.00254713 1e-05
-0.00449464 0.00254 1e-05
-0.00430044 0.00253193 1e-05
-0.00411412 0.00252332 1e-05
-0.00392784 0.00251391 1e-05
-0.00374159 0.00250372 1e-05
-0.0035554 0.00249258 1e-05
-0.00336883 0.00248019 1e-05
-0.00318995 0.00246715 1e-05
-0.00301115 0.00245303 1e-05
-0.00283245 0.00243778 1e-05
-0.00265386 0.00242125 1e-05
-0.00247443 0.00240318 1e-05
-0.0023027 0.0023843 1e-05
-0.00213114 0.00236389 1e-05
-0.00195982 0.00234159 1e-05
-0.00178875 0.00231743 1e-05
-0.00161577 0.00229111 1e-05
-0.00161561 0.00229108 1e-05
-0.00161545 0.00229106 1e-05
-0.00161529 0.00229103 1e-05
-0.00161513 0.002291 1e-05
-0.00161497 0.00229098 1e-05
-0.00145026 0.00226408 1e-05
-0.00128595 0.00223483 1e-05
-0.00112207 0.00220329 1e-05
-0.000958629 0.00216951 1e-05
-0.000791418 0.00213242 1e-05
-0.000633135 0.00209431 1e-05
-0.000475556 0.00205339 1e-05
-0.000318719 0.0020097 1e-05
-0.000162834 0.00196274 1e-05
0 0.00190959 1e-05
3.73812e-05 0.00189637 1e-05
7.46621e-05 0.00188288 1e-05
0.000111844 0.00186912 1e-05
0.000148929 0.00185509 1e-05
0.000179264 0.00184338 1e-05
0.000249089 0.00181595 1e-05
0.000318503 0.00178751 1e-05
0.000387493 0.00175804 1e-05
0.000456042 0.00172757 1e-05
0.000528387 0.00169421 1e-05
0.000634886 0.00164324 1e-05
0.000740278 0.00159001 1e-05
0.00084451 0.00153455 1e-05
0.000947621 0.00147703 1e-05
0.00102004 0.00143469 1e-05
0.00102821 0.00142975 1e-05
0.00103637 0.0014248 1e-05
0.00104452 0.00141983 1e-05
0.00105266 0.00141485 1e-05
0.00106088 0.0014098 1e-05
0.00116821 0.00134362 1e-05
0.00127404 0.00127506 1e-05
0.00137827 0.00120411 1e-05
0.00148099 0.00113098 1e-05
0.00159685 0.00104511 1e-05
0.00159698 0.00104501 1e-05
0.00159712 0.0010449 1e-05
0.00159725 0.0010448 1e-05
0.00159738 0.00104469 1e-05
0.00159752 0.00104459 1e-05
0.00169222 0.000970997 1e-05
0.00178552 0.000895636 1e-05
0.00187734 0.000818475 1e-05
0.00196774 0.000739659 1e-05
0.00203815 0.000676368 1e-05
0.00205818 0.000657906 1e-05
0.00207814 0.000639354 1e-05
0.00209801 0.000620714 1e-05
0.00211782 0.00060201 1e-05
0.00213833 0.000582526 1e-05
0.00219149 0.00053168 1e-05
0.00224416 0.000480316 1e-05
0.00229631 0.000428427 1e-05
0.00234793 0.000376006 1e-05
0.00239425 0.000328255 1e-05
0.00245207 0.000267826 1e-05
0.00250925 0.000206797 1e-05
0.00256581 0.000145185 1e-05
0.00262185 8.31081e-05 1e-05
0.00268334 1.38253e-05 1e-05
0.00268574 1.10602e-05 1e-05
0.00268815 8.29413e-06 1e-05
0.00269055 5.52699e-06 1e-05
0.00269295 2.75882e-06 1e-05
0.00269535 0 1e-05
0.00275924 -7.37369e-05 1e-05
0.00282252 -0.000148005 1e-05
0.00288516 -0.000222814 1e-05
0.00294714 -0.000298174 1e-05
0.00300421 -0.000368654 1e-05
0.00304988 -0.000425898 1e-05
0.00309525 -0.000483386 1e-05
0.00314031 -0.000541117 1e-05
0.00318512 -0.000599042 1e-05
0.00323259 -0.000660975 1e-05
0.00325066 -0.000684799 1e-05
0.00326869 -0.000708663 1e-05
0.00328666 -0.000732567 1e-05
0.00330458 -0.000756511 1e-05
0.00332215 -0.000780091 1e-05
0.00339029 -0.000871878 1e-05
0.00345783 -0.000964108 1e-05
0.00352475 -0.00105679 1e-05
0.00359112 -0.00114986 1e-05
0.00365398 -0.00123896 1e-05
0.00368041 -0.00127681 1e-05
0.00370676 -0.00131472 1e-05
0.00373303 -0.00135267 1e-05
0.00375925 -0.00139067 1e-05
0.00378611 -0.00142969 1e-05
0.00383012 -0.00149385 1e-05
0.00387391 -0.00155815 1e-05
0.00391749 -0.0016226 1e-05
0.00396083 -0.00168721 1e-05
0.00400301 -0.00175044 1e-05
0.0040712 -0.00185324 1e-05
0.00413896 -0.00195631 1e-05
0.0042063 -0.00205966 1e-05
0.00427336 -0.0021632 1e-05
0.00434393 -0.00227284 1e-05
0.00435 -0.00228233 1e-05
0.00435606 -0.00229183 1e-05
0.00436213 -0.00230133 1e-05
0.00436818 -0.00231083 1e-05
0.00437422 -0.0023203 1e-05
0.00445506 -0.00244725 1e-05
0.00453545 -0.00257449 1e-05
0.00461545 -0.00270197 1e-05
0.00469508 -0.00282968 1e-05
0.00477295 -0.00295498 1e-05
0.00479958 -0.00299798 1e-05
0.00482618 -0.00304099 1e-05
0.00485276 -0.00308402 1e-05
0.00487932 -0.00312706 1e-05
0.00490609 -0.00317042 1e-05
0.00496673 -0.00326866 1e-05
0.00502723 -0.00336699 1e-05
0.00508757 -0.00346542 1e-05
0.00514778 -0.00356393 1e-05
0.00520743 -0.00366161 1e-05
0.00526047 -0.00374851 1e-05
0.00531347 -0.00383544 1e-05
0.00536642 -0.0039224 1e-05
0.00541941 -0.00400934 1e-05
0.00547262 -0.00409654 1e-05
0.00551559 -0.00416686 1e-05
0.00555853 -0.00423719 1e-05
0.00560143 -0.00430755 1e-05
0.00564431 -0.00437792 1e-05
0.00568713 -0.00444811 1e-05
0.00575841 -0.00456488 1e-05
0.00582974 -0.00468163 1e-05
0.00590112 -0.00479834 1e-05
0.00597264 -0.00491497 1e-05
0.00604356 -0.00503017 1e-05
0.00607979 -0.00508879 1e-05
0.00611603 -0.0051474 1e-05
0.00615227 -0.00520601 1e-05
0.00618854 -0.0052646 1e-05
0.00622492 -0.00532326 1e-05
0.00630372 -0.00545009 1e-05
0.00638272 -0.0055768 1e-05
0.0064619 -0.00570339 1e-05
0.00654136 -0.0058298 1e-05
0.00661893 -0.0059524 1e-05
0.00666278 -0.00602126 1e-05
0.00670668 -0.00609009 1e-05
0.00675064 -0.00615888 1e-05
0.00679468 -0.00622762 1e-05
0.0068391 -0.00629671 1e-05
0.00691103 -0.00640822 1e-05
0.00698322 -0.00651957 1e-05
0.00705567 -0.00663074 1e-05
0.00712841 -0.00674173 1e-05
0.00719878 -0.00684829 1e-05
0.00726938 -0.00695444 1e-05
0.00734021 -0.00706044 1e-05
0.00741126 -0.00716629 1e-05
0.00748262 -0.00727193 1e-05
0.00755551 -0.00737908 1e-05
0.00760103 -0.00744553 1e-05
0.00764669 -0.00751189 1e-05
0.00769247 -0.00757816 1e-05
0.00773838 -0.00764434 1e-05
0.00778313 -0.0077085 1e-05
0.00790091 -0.00787651 1e-05
0.00801946 -0.00804398 1e-05
0.00813878 -0.00821089 1e-05
0.0082591 -0.00837708 1e-05
0.00837203 -0.00853102 1e-05
0.0083796 -0.00854119 1e-05
0.00838716 -0.00855136 1e-05
0.00839473 -0.00856153 1e-05
0.00840231 -0.00857169 1e-05
0.00840991 -0.00858188 1e-05
0.00852103 -0.00873075 1e-05
0.00863297 -0.00887901 1e-05
0.00874576 -0.00902662 1e-05
0.00885942 -0.00917356 1e-05
0.00896551 -0.00930884 1e-05
0.00902993 -0.00938994 1e-05
0.00909462 -0.00947082 1e-05
0.00915957 -0.0095515 1e-05
0.00922482 -0.00963192 1e-05
0.00929222 -0.00971437 1e-05
0.0093465 -0.00978023 1e-05
0.00940097 -0.00984593 1e-05
0.00945564 -0.00991146 1e-05
0.00951051 -0.00997682 1e-05
0.0095636 -0.0100397 1e-05
[...]
POINT_DATA 12278
 FIELD attributes 2
p 1 12278 float
177016 177098 177170 177234 177288 177332
108949 108967 108984 108998 109010 109020
87756 87765.6 87774.9 87784.1 87793 87801.5
79938.3 79944.6 79950.8 79957 79963 79969
77147.4 77156.6 77165.8 77175.1 77184.3 77193.5
77564.8 77578.4 77591.9 77605.5 77619.1 77632.6
81098 81110.4 81122.7 81134.7 81146.7 81158.4
90924.5 90944.2 90963.2 90981.5 90999.1 91016
117356 117389 117420 117448 117474 117497
215475 215286 215094 214900 214703 214505
177016 173411 169084 164505 162839 158907 155525 152874 144709 134667 129225 123796 119858 119247 118395 112350 106450 102329 101433 100567 99584.3 98602.1 97175.5 95707.1 93991.5 93625.1 93258.1 92890.5 92409.5 91911.8 89992.2 88188.3 86674.3 85887 85110.2 84424.5 83759.7 83109.9 82458.1 81624.2 81589.3 81560.3 81532.3 81504.3 81475.4 80942.7 80410.4 79878.6 79347.3 78922.2 78495.9 78086.8 77689.1 77313.5 76947.5 76597.6 76247.3 75923.6 75622.1 75321 75031.5 74741.9 74463.4 74200.5 73937.9 73684.3 73430.6 73180.5 72944.3 72708.3 72479.4 72250.4 72019.9 71800.4 71581.3 71367.6 71154.1 70935.4 70724.6 70513.9 70306.8 70099.9 69886.9 69674.5 69462.3 69250.4 69039 68823.8 68595.8 68368.2 68135.2 67899.6 67655.5 67402.9 67137 66856.7 66543 66230.8 65920.2 65607.2 65606.9 65606.4 65606 65605.6 65605.2 65214.1 64828.7 64449 64051.1 63571.2 63055.7 62546 61845.1 61072.1 60259 60010.5 59772.3 59545.1 59318.4 59132.9 58576.3 58017.6 57456.7 56983.7 56515.7 55911.2 55308.4 54768.7 54227.7 53842.4 53784.5 53726.5 53671.4 53624 53575.9 53022.8 52462.5 51944.5 51472.2 50926.2 50925.3 50924.5 50923.7 50923.1 50922.4 50495.2 50060.5 49657.9 49322.3 49053.3 48954.2 48854.7 48784 48714.4 48641.9 48453.4 48262.5 48069.8 47925.4 47793.2 47620.6 47452 47312.5 47170.9 47011.7 47005.2 46998.7 46992.2 46986.3 46980.7 46875.5 46763.2 46648.4 46535.2 46428.2 46392.7 46356 46316.4 46276.1 46232.4 46212.2 46191.9 46171.4 46150.2 46129.1 46103.7 46077 46040 45997.6 45956.1 45958.5 45960.6 45959.9 45959.1 45958.2 45946.9 45935.1 45923 45907.9 45892.7 45902.5 45911.6 45916.1 45920.1 45923.8 45922.9 45922.1 45921.2 45920.1 45919.1 45932.6 45946.2 45958.8 45969.6 45979.8 45990.1 46000.3 46010.1 46019.8 46029.6 46041.1 46052.5 46063.7 46074.7 46085.7 46104.1 46122.5 46140.9 46159.4 46178 46186.6 46195.1 46203.8 46212.9 46222 46244.7 46267.4 46290.7 46314.6 46338.4 46345.8 46353.1 46360.9 46369.1 46377.4 46400.6 46423.9 46448 46473.3 46498 46506.9 46515.8 46525.4 46535.6 46545.9 46565.6 46585.3 46605.7 46627.6 46648.8 46662.7 46676.6 46692.3 46708.5 46725.2 46736.7 46748.3 46760 46772.7 46785.1 46807.1 46829.2 46854.6 46880.8 46906.7 46907.8 46908.9 46910.2 46911.6 46912.9 46934.1 46955.5 46977.3 47001.2 47023.6 47033.1 47042.6 47053.6 47064.6 47076 47085.7 47095.5 47105.3 47115.7 47125.9 47143.1 47160.4 47179.3 47199.2 47218.5 47221 47223.6 47226.6 47229.5 47232.4 47246.8 47261.2 47275.8 47291.4 47306.3 47320 47334.2 47349.6 47365.2 47382 47382.1 47382.2 47382.3 47382.5 47382.6 47397.2 47411.9 47426.7 47442.6 47457.8 47469.8 47482.4 47496 47509.7 47522.8 47523.4 47524 47524.6 47525.3 47525.9 47537.7 47549.6 47561.5 47574.2 47586.7 47597 47607.3 47618.9 47631.1 47643.1 47647.1 47651.4 47656.1 47660.7 47665.6 47671.4 47677.3 47683.2 47689.4 47695.8 47704.6 47713.7 47723.4 47734.3 47744.8 47752.4 47760.5 47769.4 47778.3 47787.5 47789.5 47792 47794.5 47797 47799.6 47805 47810.4 47815.8 47821.3 47827.4 47833.6 47840.1 47847 47855.1 47862.9 47868 47873 47879.2 47885.9 47892.6 47896.2 47900.8 47905.5 47910.1 47915.3 47915.6 47915.9 47916.1 47916.4 47916.7 47920.8 47925 47929.1 47933.2 47938.3 47940.6 47943.1 47946.1 47949.9 47953.8 47954.9 47956 47958 47960.7 47963.4 47963.3 47963.8 47964.7 47965.5 47967 47966.1 47965.9 47965.6 47965.3 47964.9 47964.8 47964.8 47964.8 47964.8 47964.8 47963.4 47962.1 47960.7 47959.3 47958.5 47955.4 47952.8 47950.2 47947.9 47946.1 47941.7 47937.4 47933.7 47930.6 47927.6 47922 47916.5 47911.6 47907.3 47903 47896.3 47889.8 47883.7 47878 47872.5 47864.7 47857.3 47850 47842.8 47836.1 47827.4 47819 47810.6 47802.2 47794.1 47785.5 47777.1 47768.7 47760.3 47750.4 47749.7 47748.9 47748.1 47747.3 47746.6 47736.1 47725.7 47715.2 47704.7 47694.4 47682.6 47671.1 47659.6 47648.1 47636.8 47623.8 47611.3 47598.8 47586.3 47574 47560.1 47546.4 47532.9 47519.5 47506.2 47491.4 47476.6 47462.2 47447.9 47433.7 47417.9 47402.2 47386.9 47371.7 47356.5 47339.9 47323.3 47307.1 47291 47274.9 47257.6 47240.2 47223 47206.1 47189.1 47171 47152.9 47134.9 47117.1 47099.4 47080.6 47061.7 47042.9 47024.4 47005.8 46986.4 46966.8 46947.3 46928 46908.7 46888.6 46868.4 46848.2 46828.1 46808.2 46787.5 46766.7 46745.8 46725.1 46704.5 46683.2 46661.8 46640.3 46619 46597.8 46575.9 46553.9 46531.9 46510 46488.2 46465.8 46443.3 46420.8 46398.3 46375.9 46353.1 46330.1 46307 46284 46261.2 46237.8 46214.4 46190.9 46167.4 46144.1 46120.3 46096.4 46072.4 46048.5 46024.7 46000.5 45976.2 45951.9 45927.5 45903.3 45878.7 45854 45829.3 45804.6 45779.9 45755 45729.9 45704.8 45679.8 45654.7 45629.4 45604 45578.6 45553.2 45527.8 45502.2 45476.5 45450.7 45425 45399.3 45373.4 45347.3 45321.3 45295.3 45269.3 45243 45216.7 45190.4 45164.1 45137.8 45111.3 45084.7 45058.2 45031.6 45005 44978.3 44951.4 44924.6 44897.8 44871 44844 44816.9 44789.8 44762.8 44735.7 44708.4 44681.2 44653.9 44626.6 44599.3 44571.8 44544.3 44516.8 44489.3 44461.8 44434.1 44406.4 44378.7 44350.9 44323.2 44295.3 44267.4 44239.5 44211.6 44183.7 44155.6 44127.5 44099.4 44071.3 44043.1 44014.9 43986.6 43958.3 43930 43901.7 43873.2 43844.7 43816.3 43787.8 43759.3 43730.7 43702 43673.3 43644.7 43616 43587.2 43558.4 43529.5 43500.7 43471.9 43442.9 43413.9 43384.9 43355.9 43326.8 43297.7 43268.5 43239.3 43210.2 43181 43151.6 43122.3 43092.9 43063.6 43034.2 43004.7 42975.2 42945.7 42916.2 42886.6 42857 42827.3 42797.6 42767.9 42738.2 42708.4 42678.5 42648.6 42618.8 42588.9 42558.9 42528.8 42498.8 42468.8 42438.7 42408.5 42378.3 42348.1 42317.9 42287.7 42257.3 42226.9 42196.5 42166.1 42135.7 42105.2 42074.6 42044.1 42013.5 41982.9 41952.2 41921.4 41890.7 41859.9 41829.2 41798.3 41767.3 41736.4 41705.5 41674.5 41643.4 41612.3 41581.2 41550 41518.9 41487.6 41456.3 41425 41393.7 41362.3 41330.9 41299.3 41267.8 41236.3 41204.8 41173.1 41141.4 41109.7 41078 41046.2 41014.4 40982.5 40950.5 40918.6 40886.7 40854.6 40822.5 40790.4 40758.2 40726.1 40693.8 40661.5 40629.1 40596.8 40564.4 40532 40499.4 40466.9 40434.3 40401.7 40369 40336.3 40303.5 40270.7 40237.9 40205 40172 40139 40106 40073 40039.8 40006.6 39973.4 39940.2 39906.9 39873.6 39840.1 39806.7 39773.2 39739.7 39706.1 39672.5 39638.8 39605.1 39571.4 39537.5 39503.6 39469.7 39435.8 39401.8 39367.7 39333.6 39299.4 39265.3 39231 39196.7 39162.3 39127.9 39093.5 39059 39024.4 38989.8 38955.1 38920.5 38885.8 38850.9 38816 38781.1 38746.2 38711.3 38676.2 38641 38605.9 38570.7 38535.5 38500.1 38464.7 38429.3 38393.9 38358.4 38322.8 38287.1 38251.4 38215.7 38180 38144.1 38108.1 38072.2 38036.2 38000.2 37964.1 37927.9 37891.6 37855.4 37819.1 37782.7 37746.2 37709.7 37673.2 37636.7 37600 37563.2 37526.4 37489.7 37452.8 37415.8 37378.8 37341.8 37304.7 37267.6 37230.3 37193 37155.7 37118.3 37080.9 37043.4 37005.8 36968.2 36930.5 36892.8 36855 36817.1 36779.2 36741.3 36703.3 36665.2 36627 36588.8 36550.6 36512.3 36473.9 36435.5 36397 36358.4 36319.9 36281.2 36242.4 36203.6 36164.8 36125.9 36086.9 36047.9 36008.8 35969.7 35930.5 35891.2 35851.8 35812.5 35773 35733.6 35693.9 35654.3 35614.6 35574.9 35535.1 35495.2 35455.2 35415.2 35375.2 35335.1 35294.9 35254.6 35214.3 35173.9 35133.5 35093 35052.4 35011.8 34971.1 34930.4 34889.5 34848.6 34807.7 34766.7 34725.7 34684.5 34643.3 34602.1 34560.7 34519.4 34477.9 34436.4 34394.8 34353.2 34311.5 34269.7 34227.8 34185.9 34144 34102 34059.8 34017.7 33975.4 33933.1 33890.8 33848.4 33805.9 33763.3 33720.7 33678 33635.2 33592.4 33549.5 33506.6 33463.6 33420.4 33377.3 33334.1 33290.8 33247.5 33204 33160.5 33117 33073.3 33029.7 32985.9 32942 32898.1 32854.2 32810.2 32766 32721.9 32677.6 32633.3 32589 32544.5 32500 32455.4 32410.7 32366 32321.2 32276.3 32231.4 32186.4 32141.4 32096.2 32051 32005.7 31960.3 31915 31869.4 31823.9 31778.2 31732.5 31686.8 31640.9 31595 31549 31502.9 31456.8 31410.6 31364.3 31318 31271.5 31225.1 31178.5 31131.8 31085.1 31038.3 30991.6 30944.6 30897.6 30850.5 30803.3 30756.2 30708.8 30661.5 30614 30566.5 30519 30471.3 30423.5 30375.7 30327.8 30279.9 30231.8 30183.7 30135.5 30087.3 30039 29990.5 29942 29893.5 29844.8 29796.2 29747.3 29698.5 29649.5 29600.5 29551.5 29502.3 29453 29403.7 29354.3 29304.9 29255.3 29205.6 29155.9 29106.1 29056.3 29006.3 28956.3 28906.2 28856 28805.8 28755.4 28705 28654.5 28603.9 28553.4 28502.5 28451.7 28400.8 28349.9 28298.9 28247.7 28196.4 28145.1 28093.8 28042.4 27990.8 27939.1 27887.4 27835.6 27783.9 27731.8 27679.8 27627.7 27575.5 27523.3 27470.8 27418.3 27365.8 27313.2 27260.6 27207.7 27154.8 27101.9 27048.8 26995.8 26942.5 26889.2 26835.8 26782.4 26728.9 26675.2 26621.4 26567.6 26513.8 26459.9 26405.7 26351.6 26297.4 26243.1 26188.8 26134.2 26079.6 26025 25970.3 25915.6 25860.6 25805.6 25750.7 25695.6 25640.5 25585.2 25529.8 25474.5 25419.1 25363.7 25308 25252.4 25196.8 25141.2 25085.5 25029.6 24973.8 24918.1 24862.4 24806.6 24750.7 24695 24639.3 24583.6 24528 24472.2 24416.9 24361.8 24306.8 24252 24197.4 24142.4 24087.4 24032.4 23977 23922.3 23873.6 23825 23776.4 23732.6 23683.5 23618.1 23552.7 23487.1 23412.6 23361.5 23331.1 23301 23271.2 23257 23252.8 23248.7 23244.5 23240.4 23238.8 23236.2 23231 23225.7 23220.5 23214.7 23187.8 23160.6 23133.1 23105.4 23061.8 22985.9 22916.9 22848 22779.1 22722.9 22671.7 22615.4 22559.1 22502.7 22440 22372.3 22304.2 22236.1 22168 22099.5 22028.2 21955 21881.8 21808.5 21733.2 21654.9 21575.1 21495.3 21415.5 21334.1 21249.9 21163.7 21077.6 20991.4 20903.4 20812.5 20719.5 20626.6 20533.5 20438.7 20340.6 20240.4 20140.1 20039.7 19937.4 19831.5 19723.3 19615 19506.6 19396.2 19281.8 19164.8 19047.6 18930.2 18810.5 18686.4 18559.7 18432.8 18305.8 18176.3 18042.3 17904.3 17766.2 17627.8 17486 17339 17189.3 17039.5 16889.5 16737.2 16579.4 16414.9 16250 16084.7 15913.2 15735.5 15557.4 15379.2 15201 15023 14838.3 14638.8 14438.5 14237.4 14022.2 13798.9 13585.8 13373.3 13161.4 12960.1 12751.2 12503.7 12253.9 12002 11712.7 11412.6 11157.2 10904.7 10655 10450.2 10237.6 9921.66 9598.09 9265.92 8833.24 8384.25 8071.49 7773.87 7494.29 7349.19 7198.15 6801.68 6357.22 5838.97 5089.6 4311.32 3779.15 3398.23 3250.9 3316.63 3382.94 3362.03 2777.12 1388.15 0