4.545454545e-05 	0.0005122553546 	9.77764652e-05 	1.089121321e-11
6.060606061e-05 	0.00132442636 	0.0002527987524 	2.815853929e-11
7.575757576e-05 	0.002136597385 	0.0004078210466 	4.542586941e-11
9.090909091e-05 	0.002970156297 	0.0005516176903 	5.407050684e-11
0.0001060606061 	0.003827671306 	0.0006828459326 	5.306292785e-11
0.0001212121212 	0.004685186316 	0.0008140741777 	5.205534735e-11
0.0001363636364 	0.005557726342 	0.0009373865491 	5.113420706e-11
0.0001515151515 	0.006463289212 	0.001043308961 	5.040364371e-11
0.0001666666667 	0.007368852058 	0.00114923137 	4.967307954e-11
0.0001818181818 	0.008283161082 	0.001251800226 	4.90623065e-11
0.000196969697 	0.009245612376 	0.001335922347 	4.910850939e-11
0.0002121212121 	0.01020806366 	0.001420044467 	4.915471181e-11
0.0002272727273 	0.01117051494 	0.001504166586 	4.920091388e-11
0.0002424242424 	0.01220511066 	0.001570639299 	4.867814223e-11
0.0002575757576 	0.01324008509 	0.001637020681 	4.815224828e-11
0.0002727272727 	0.0142750595 	0.00170340206 	4.762635434e-11
0.0002878787879 	0.01538748723 	0.00175789721 	4.696819425e-11
0.000303030303 	0.01651513014 	0.001810058466 	4.628358432e-11
0.0003181818182 	0.01764277302 	0.001862219717 	4.55989754e-11
0.0003333333333 	0.01884763506 	0.001906741189 	4.393066834e-11
0.0003484848485 	0.02008936563 	0.001947615936 	4.179306889e-11
0.0003636363636 	0.02133109614 	0.001988490677 	3.96554697e-11
0.0003787878788 	0.02264224952 	0.002024632563 	3.807073846e-11
0.0003939393939 	0.02401803523 	0.002056369015 	3.700142342e-11
0.0004090909091 	0.02539382087 	0.002088105459 	3.593210713e-11
0.0004242424242 	0.02682381193 	0.002117031667 	3.625667532e-11
0.0004393939394 	0.02835063249 	0.002140938675 	3.907121039e-11
0.0004545454545 	0.02987745297 	0.002164845679 	4.188574472e-11
0.0004696969697 	0.03143721219 	0.002187309829 	4.430020061e-11
0.0004848484848 	0.03312879409 	0.002204000685 	4.511233563e-11
0.0005 	0.03482037596 	0.002220691536 	4.592447046e-11
0.0005151515152 	0.03651915666 	0.002237093343 	4.663931383e-11
0.0005303030303 	0.03838657067 	0.002246728182 	4.508244649e-11
0.0005454545455 	0.04025398462 	0.002256363019 	4.352557887e-11
0.0005606060606 	0.0421213985 	0.002265997852 	4.196871092e-11
0.0005757575758 	0.04415208808 	0.002269358668 	4.174329506e-11
0.0005909090909 	0.04620462914 	0.002271879944 	4.169566762e-11
0.0006060606061 	0.04825717012 	0.002274401213 	4.164804017e-11
0.0006212121212 	0.05044953226 	0.002271704452 	4.086131317e-11
0.0006363636364 	0.05269546664 	0.002267008511 	3.97913394e-11
0.0006515151515 	0.05494140089 	0.002262312562 	3.872136577e-11
0.0006666666667 	0.05730076112 	0.002253518592 	3.760295569e-11
0.0006818181818 	0.05974780127 	0.002241556866 	3.644759445e-11
0.000696969697 	0.06219484128 	0.002229595131 	3.529223213e-11
0.0007121212121 	0.06472633615 	0.002214713767 	3.458186567e-11
0.0007272727273 	0.06738188895 	0.002195543702 	3.452515529e-11
0.0007424242424 	0.0700374416 	0.002176373634 	3.446844446e-11
0.0007575757576 	0.07274607676 	0.00215547598 	3.423600413e-11
0.0007727272727 	0.07561736156 	0.002129284747 	3.346475382e-11
0.0007878787879 	0.07848864625 	0.002103093508 	3.269350311e-11
0.000803030303 	0.08137933469 	0.002076319521 	3.19569099e-11
0.0008181818182 	0.08447344443 	0.002043435637 	3.158309763e-11
0.0008333333333 	0.08756755408 	0.002010551752 	3.120928528e-11
0.0008484848485 	0.09066166366 	0.001977667865 	3.083547286e-11
0.0008636363636 	0.09396908465 	0.001939014868 	3.232884246e-11
0.0008787878788 	0.09729302984 	0.001899914872 	3.396646481e-11
0.0008939393939 	0.1006169749 	0.001860814871 	3.560408788e-11
0.0009090909091 	0.104123054 	0.00181741754 	3.508276568e-11
0.0009242424242 	0.107683805 	0.001772730117 	3.391349232e-11
0.0009393939394 	0.1112445558 	0.001728042689 	3.274421953e-11
0.0009545454545 	0.1149540519 	0.001680423968 	2.975813255e-11
0.0009696969697 	0.1187585871 	0.001630932115 	2.561243472e-11
0.0009848484848 	0.1225631222 	0.001581440258 	2.146673433e-11
0.001 	0.1264808249 	0.00153020389 	1.905607876e-11
0.001015151515 	0.1305361894 	0.001476845105 	1.87566246e-11
0.00103030303 	0.1345915536 	0.001423486321 	1.845716872e-11
0.001045454545 	0.1387223122 	0.001369316297 	1.860513007e-11
0.001060606061 	0.1430357023 	0.001313180631 	1.983543265e-11
0.001075757576 	0.1473490922 	0.001257044962 	2.106573392e-11
0.001090909091 	0.1516978569 	0.001200704397 	2.199239685e-11
0.001106060606 	0.156276783 	0.001143029482 	2.094012738e-11
0.001121212121 	0.160855709 	0.001085354566 	1.988785805e-11
0.001136363636 	0.1654346349 	0.001027679651 	1.883558883e-11
0.001151515152 	0.1702803085 	0.0009698431493 	1.724444512e-11
0.001166666667 	0.175133034 	0.0009120022062 	1.563858188e-11
0.001181818182 	0.1799857593 	0.0008541612626 	1.403272014e-11
0.001196969697 	0.1850702452 	0.0007973978503 	9.626660505e-12
0.001212121212 	0.1902072462 	0.0007408784037 	4.586243323e-12
0.001227272727 	0.1953442469 	0.0006843589559 	-4.541723388e-13
0.001242424242 	0.2006796345 	0.0006297647033 	-3.587087365e-12
0.001257575758 	0.2061189208 	0.0005761784881 	-5.720488143e-12
0.001272727273 	0.2115582068 	0.0005225922752 	-7.853888707e-12
0.001287878788 	0.2171704672 	0.0004713882669 	-7.07979362e-12
0.001303030303 	0.2229575737 	0.000422591967 	-3.366804274e-12
0.001318181818 	0.2287446798 	0.0003737956668 	3.461850239e-13
0.001333333333 	0.2346998026 	0.00032726368 	3.008655351e-12
0.001348484848 	0.2409835203 	0.0002851595786 	3.617953817e-12
0.001363636364 	0.2472672376 	0.0002430554777 	4.227250773e-12
0.001378787879 	0.2537380029 	0.000202139906 	3.984467894e-12
0.001393939394 	0.261064701 	0.0001666614789 	-1.576078625e-13
0.001409090909 	0.268391399 	0.000131183052 	-4.299683934e-12
0.001424242424 	0.2757843811 	9.580567567e-05 	-8.303543319e-12
0.001439393939 	0.2863673341 	6.528064944e-05 	-5.657935904e-12
0.001454545455 	0.2969502865 	3.475562385e-05 	-3.012329419e-12
0.00146969697 	0.3075332382 	4.230599048e-06 	-3.667241123e-13
