# vtk DataFile Version 2.0
track0
ASCII
DATASET POLYDATA
POINTS 12278 float
-0.0205 0.001 1e-05
-0.02052 0.000999216 1e-05
-0.02054 0.000998592 1e-05
-0.02056 0.000998126 1e-05
-0.02058 0.000997818 1e-05
-0.0206 0.000997665 1e-05
-0.0205 0.00367778 1e-05
-0.02052 0.00367703 1e-05
-0.02054 0.00367643 1e-05
-0.02056 0.00367599 1e-05
-0.02058 0.00367569 1e-05
-0.0206 0.00367554 1e-05
-0.0205 0.00635556 1e-05
-0.02052 0.00635527 1e-05
-0.02054 0.00635505 1e-05
-0.02056 0.00635488 1e-05
-0.02058 0.00635476 1e-05
-0.0206 0.00635471 1e-05
-0.0205 0.00903333 1e-05
-0.02052 0.00903311 1e-05
-0.02054 0.00903293 1e-05
-0.02056 0.0090328 1e-05
-0.02058 0.00903271 1e-05
-0.0206 0.00903266 1e-05
-0.0205 0.0117111 1e-05
-0.02052 0.0117111 1e-05
-0.02054 0.011711 1e-05
-0.02056 0.011711 1e-05
-0.02058 0.011711 1e-05
-0.0206 0.011711 1e-05
-0.0205 0.0143889 1e-05
-0.02052 0.014389 1e-05
-0.02054 0.014389 1e-05
-0.02056 0.0143891 1e-05
-0.02058 0.0143891 1e-05
-0.0206 0.0143891 1e-05
-0.0205 0.0170667 1e-05
-0.02052 0.017067 1e-05
-0.02054 0.0170672 1e-05
-0.02056 0.0170674 1e-05
-0.02058 0.0170675 1e-05
-0.0206 0.0170676 1e-05
-0.0205 0.0197444 1e-05
-0.02052 0.019745 1e-05
-0.02054 0.0197454 1e-05
-0.02056 0.0197457 1e-05
-0.02058 0.0197459 1e-05
-0.0206 0.019746 1e-05
-0.0205 0.0224222 1e-05
-0.02052 0.022423 1e-05
-0.02054 0.0224236 1e-05
-0.02056 0.0224241 1e-05
-0.02058 0.0224244 1e-05
-0.0206 0.0224245 1e-05
-0.0205 0.0251 1e-05
-0.02052 0.0251003 1e-05
-0.02054 0.0251005 1e-05
-0.02056 0.0251007 1e-05
-0.02058 0.0251008 1e-05
-0.0206 0.0251008 1e-05
-0.0205 0.001 1e-05
-0.0203632 0.00100536 1e-05
-0.0202266 0.00101331 1e-05
-0.0200901 0.00102296 1e-05
-0.0200427 0.00102682 1e-05
-0.0198376 0.00104418 1e-05
-0.0196338 0.00107322 1e-05
-0.0194327 0.00111734 1e-05
-0.0192368 0.00118024 1e-05
-0.0190172 0.00124951 1e-05
-0.0189002 0.00128348 1e-05
-0.0187827 0.00131598 1e-05
-0.0186649 0.001347 1e-05
-0.0185469 0.001377 1e-05
-0.0183807 0.00141936 1e-05
-0.0182041 0.00146458 1e-05
-0.0180267 0.00150692 1e-05
-0.0178487 0.0015464 1e-05
-0.0176703 0.00158389 1e-05
-0.0174976 0.00161991 1e-05
-0.0172846 0.00166394 1e-05
-0.0170715 0.00170741 1e-05
-0.0168583 0.00175029 1e-05
-0.0166449 0.00179219 1e-05
-0.0163945 0.00184007 1e-05
-0.0163234 0.00185324 1e-05
-0.0162522 0.00186629 1e-05
-0.016181 0.00187921 1e-05
-0.0161097 0.00189201 1e-05
-0.0160387 0.0019046 1e-05
-0.0157586 0.0019535 1e-05
-0.0154779 0.00199931 1e-05
-0.0151968 0.00204225 1e-05
-0.0149154 0.00208283 1e-05
-0.0146381 0.00212134 1e-05
-0.0143838 0.00215527 1e-05
-0.0141293 0.00218766 1e-05
-0.0138747 0.00221855 1e-05
-0.0136198 0.00224797 1e-05
-0.0132934 0.00228369 1e-05
-0.0132791 0.00228515 1e-05
-0.0132648 0.0022866 1e-05
-0.0132504 0.00228805 1e-05
-0.0132361 0.0022895 1e-05
-0.0132214 0.00229098 1e-05
-0.0129776 0.00231543 1e-05
-0.0127337 0.00233865 1e-05
-0.0124897 0.00236061 1e-05
-0.0122456 0.0023813 1e-05
-0.0120025 0.00240058 1e-05
-0.0117547 0.00241909 1e-05
-0.0115067 0.00243627 1e-05
-0.0112587 0.00245231 1e-05
-0.0110106 0.00246734 1e-05
-0.0107632 0.00248136 1e-05
-0.0105252 0.00249391 1e-05
-0.0102872 0.00250547 1e-05
-0.0100491 0.00251602 1e-05
-0.00981105 0.00252575 1e-05
-0.00957337 0.00253472 1e-05
-0.00934491 0.00254261 1e-05
-0.00911643 0.00254974 1e-05
-0.00888792 0.00255611 1e-05
-0.0086594 0.00256172 1e-05
-0.00843108 0.00256669 1e-05
-0.00821175 0.00257085 1e-05
-0.00799241 0.00257439 1e-05
-0.00777306 0.00257731 1e-05
-0.0075537 0.00257953 1e-05
-0.00733443 0.00258115 1e-05
-0.00712387 0.00258213 1e-05
-0.0069133 0.00258256 1e-05
-0.00670273 0.00258244 1e-05
-0.00649216 0.00258162 1e-05
-0.0062816 0.00258018 1e-05
-0.00607944 0.0025782 1e-05
-0.0058773 0.00257566 1e-05
-0.00567516 0.00257257 1e-05
-0.00547303 0.00256875 1e-05
-0.00527083 0.0025642 1e-05
-0.00507675 0.00255913 1e-05
-0.00488269 0.00255344 1e-05
-0.00468865 0.00254712 1e-05
-0.00449464 0.00253998 1e-05
-0.00430044 0.00253192 1e-05
-0.00411412 0.0025233 1e-05
-0.00392784 0.00251389 1e-05
-0.00374159 0.0025037 1e-05
-0.0035554 0.00249256 1e-05
-0.00336883 0.00248017 1e-05
-0.00318995 0.00246713 1e-05
-0.00301115 0.00245301 1e-05
-0.00283245 0.00243776 1e-05
-0.00265386 0.00242123 1e-05
-0.00247443 0.00240316 1e-05
-0.0023027 0.00238427 1e-05
-0.00213114 0.00236386 1e-05
-0.00195982 0.00234156 1e-05
-0.00178875 0.0023174 1e-05
-0.00161577 0.00229108 1e-05
-0.00161565 0.00229106 1e-05
-0.00161553 0.00229104 1e-05
-0.00161541 0.00229102 1e-05
-0.00161528 0.002291 1e-05
-0.00161516 0.00229098 1e-05
-0.00145041 0.00226408 1e-05
-0.00128607 0.00223482 1e-05
-0.00112214 0.00220327 1e-05
-0.000958669 0.00216948 1e-05
-0.000791418 0.00213239 1e-05
-0.000633135 0.00209428 1e-05
-0.000475556 0.00205335 1e-05
-0.000318719 0.00200966 1e-05
-0.000162834 0.00196269 1e-05
0 0.00190954 1e-05
3.73549e-05 0.00189634 1e-05
7.46097e-05 0.00188285 1e-05
0.000111766 0.0018691 1e-05
0.000148825 0.00185508 1e-05
0.000179144 0.00184338 1e-05
0.000248992 0.00181594 1e-05
0.00031843 0.00178749 1e-05
0.000387443 0.00175801 1e-05
0.000456017 0.00172753 1e-05
0.000528387 0.00169416 1e-05
0.000634886 0.00164318 1e-05
0.000740278 0.00158995 1e-05
0.00084451 0.00153449 1e-05
0.00094762 0.00147696 1e-05
0.00101993 0.00143469 1e-05
0.00102812 0.00142974 1e-05
0.0010363 0.00142477 1e-05
0.00104447 0.00141979 1e-05
0.00105264 0.0014148 1e-05
0.00106088 0.00140973 1e-05
0.00116821 0.00134354 1e-05
0.00127404 0.00127499 1e-05
0.00137827 0.00120403 1e-05
0.00148099 0.0011309 1e-05
0.00159673 0.00104511 1e-05
0.00159689 0.00104499 1e-05
0.00159705 0.00104487 1e-05
0.0015972 0.00104474 1e-05
0.00159736 0.00104462 1e-05
0.00159752 0.0010445 1e-05
0.00169219 0.000970924 1e-05
0.00178546 0.000895582 1e-05
0.00187726 0.000818441 1e-05
0.00196763 0.000739646 1e-05
0.00203803 0.000676367 1e-05
0.00205809 0.000657882 1e-05
0.00207806 0.000639309 1e-05
0.00209796 0.000620645 1e-05
0.00211779 0.000601919 1e-05
0.00213833 0.000582409 1e-05
0.00219147 0.000531586 1e-05
0.00224411 0.000480246 1e-05
0.00229623 0.000428381 1e-05
0.00234783 0.000375985 1e-05
0.00239413 0.000328255 1e-05
0.00245197 0.000267799 1e-05
0.00250918 0.000206743 1e-05
0.00256576 0.000145104 1e-05
0.00262183 8.29987e-05 1e-05
0.00268334 1.36816e-05 1e-05
0.00268572 1.09453e-05 1e-05
0.0026881 8.20792e-06 1e-05
0.00269048 5.46957e-06 1e-05
0.00269285 2.7302e-06 1e-05
0.00269522 0 1e-05
0.00275912 -7.37368e-05 1e-05
0.0028224 -0.000148005 1e-05
0.00288504 -0.000222813 1e-05
0.00294701 -0.000298173 1e-05
0.00300408 -0.000368654 1e-05
0.00304978 -0.000425929 1e-05
0.00309518 -0.000483449 1e-05
0.00314026 -0.000541212 1e-05
0.00318509 -0.000599169 1e-05
0.00323259 -0.000661139 1e-05
0.00325064 -0.00068493 1e-05
0.00326864 -0.000708761 1e-05
0.00328658 -0.000732632 1e-05
0.00330448 -0.000756542 1e-05
0.00332202 -0.00078009 1e-05
0.00339017 -0.000871877 1e-05
0.00345771 -0.000964107 1e-05
0.00352463 -0.00105679 1e-05
0.003591 -0.00114986 1e-05
0.00365386 -0.00123896 1e-05
0.00368031 -0.00127684 1e-05
0.00370669 -0.00131478 1e-05
0.00373298 -0.00135277 1e-05
0.00375923 -0.0013908 1e-05
0.00378611 -0.00142986 1e-05
0.00383009 -0.00149398 1e-05
0.00387387 -0.00155825 1e-05
0.00391742 -0.00162267 1e-05
0.00396074 -0.00168724 1e-05
0.0040029 -0.00175044 1e-05
0.00407111 -0.00185326 1e-05
0.0041389 -0.00195637 1e-05
0.00420626 -0.00205975 1e-05
0.00427334 -0.00216332 1e-05
0.00434393 -0.00227299 1e-05
0.00434998 -0.00228245 1e-05
0.00435603 -0.00229192 1e-05
0.00436207 -0.00230139 1e-05
0.00436811 -0.00231086 1e-05
0.00437413 -0.0023203 1e-05
0.00445497 -0.00244725 1e-05
0.00453537 -0.00257449 1e-05
0.00461536 -0.00270197 1e-05
0.00469501 -0.00282968 1e-05
0.00477288 -0.00295498 1e-05
0.00479952 -0.00299799 1e-05
0.00482614 -0.00304103 1e-05
0.00485273 -0.00308408 1e-05
0.00487931 -0.00312714 1e-05
0.00490609 -0.00317051 1e-05
0.00496672 -0.00326874 1e-05
0.00502721 -0.00336705 1e-05
0.00508755 -0.00346546 1e-05
0.00514775 -0.00356395 1e-05
0.0052074 -0.00366161 1e-05
0.00526044 -0.00374852 1e-05
0.00531345 -0.00383545 1e-05
0.00536641 -0.00392241 1e-05
0.0054194 -0.00400935 1e-05
0.00547262 -0.00409656 1e-05
0.00551559 -0.00416687 1e-05
0.00555853 -0.0042372 1e-05
0.00560144 -0.00430756 1e-05
0.00564432 -0.00437792 1e-05
0.00568714 -0.00444811 1e-05
0.00575843 -0.00456486 1e-05
0.00582975 -0.00468159 1e-05
0.00590113 -0.00479828 1e-05
0.00597264 -0.0049149 1e-05
0.00604356 -0.00503007 1e-05
0.00607981 -0.00508871 1e-05
0.00611606 -0.00514734 1e-05
0.00615233 -0.00520597 1e-05
0.00618861 -0.00526458 1e-05
0.00622501 -0.00532326 1e-05
0.00630379 -0.00545004 1e-05
0.00638277 -0.00557671 1e-05
0.00646194 -0.00570325 1e-05
0.00654138 -0.00582962 1e-05
0.00661893 -0.00595218 1e-05
0.00666282 -0.00602108 1e-05
0.00670676 -0.00608995 1e-05
0.00675075 -0.00615879 1e-05
0.00679482 -0.00622757 1e-05
0.00683928 -0.00629671 1e-05
0.00691118 -0.00640815 1e-05
0.00698333 -0.00651942 1e-05
0.00705574 -0.00663052 1e-05
0.00712845 -0.00674144 1e-05
0.00719878 -0.00684793 1e-05
0.00726944 -0.00695415 1e-05
0.00734033 -0.00706022 1e-05
0.00741144 -0.00716615 1e-05
0.00748286 -0.00727186 1e-05
0.00755582 -0.00737909 1e-05
0.00760128 -0.00744543 1e-05
0.00764687 -0.00751169 1e-05
0.00769259 -0.00757786 1e-05
0.00773844 -0.00764394 1e-05
0.00778313 -0.00770801 1e-05
0.00790091 -0.00787599 1e-05
0.00801946 -0.00804343 1e-05
0.00813878 -0.00821032 1e-05
0.0082591 -0.00837649 1e-05
0.00837203 -0.00853041 1e-05
0.00837969 -0.0085407 1e-05
0.00838735 -0.008551 1e-05
0.00839501 -0.00856129 1e-05
0.00840268 -0.00857158 1e-05
0.00841037 -0.00858189 1e-05
0.0085214 -0.00873061 1e-05
0.00863325 -0.00887871 1e-05
0.00874595 -0.00902617 1e-05
0.00885951 -0.00917296 1e-05
0.00896551 -0.00930812 1e-05
0.00903006 -0.00938936 1e-05
0.00909487 -0.00947039 1e-05
0.00915994 -0.00955121 1e-05
0.00922532 -0.00963178 1e-05
0.00929287 -0.00971438 1e-05
0.00934701 -0.00978007 1e-05
0.00940136 -0.0098456 1e-05
0.00945589 -0.00991096 1e-05
0.00951063 -0.00997616 1e-05
0.0095636 -0.0100389 1e-05
[...]
POINT_DATA 12278
 FIELD attributes 2
p 1 12278 float
177014 177096 177169 177232 177286 177331
108948 108966 108982 108996 109009 109019
87754.5 87764 87773.4 87782.6 87791.5 87799.9
79936.8 79943.1 79949.3 79955.4 79961.5 79967.4
77145.9 77155.1 77164.3 77173.5 77182.7 77191.9
77563.2 77576.8 77590.4 77603.9 77617.5 77631
81096.4 81108.8 81121.1 81133.2 81145.1 81156.9
90922.9 90942.6 90961.6 90979.9 90997.5 91014.4
117355 117387 117418 117446 117472 117496
215474 215284 215092 214898 214702 214504
177014 173409 169082 164504 162837 158906 155523 152872 144707 134666 129223 123795 119856 119246 118394 112348 106449 102327 101432 100565 99582.8 98600.6 97173.9 95705.6 93990 93623.5 93256.5 92889 92408 91910.3 89990.7 88186.8 86672.8 85885.5 85108.7 84422.9 83758.2 83108.4 82456.6 81622.7 81587.7 81558.8 81530.8 81502.7 81473.9 80941.2 80408.9 79877 79345.7 78920.7 78494.4 78085.3 77687.6 77312 76946 76596.1 76245.8 75922 75620.6 75319.5 75030 74740.4 74461.8 74199 73936.4 73682.7 73429 73179 72942.8 72706.7 72477.8 72248.9 72018.4 71798.9 71579.7 71366.1 71152.5 70933.9 70723.1 70512.4 70305.2 70098.3 69885.4 69672.9 69460.8 69248.9 69037.4 68822.2 68594.2 68366.6 68133.7 67898 67653.9 67401.3 67135.4 66855.1 66541.4 66229.2 65918.6 65605.6 65605.3 65605 65604.6 65604.3 65604 65212.8 64827.3 64447.5 64049.5 63569.4 63053.9 62544.2 61843.2 61070.1 60257 60008.7 59770.6 59543.5 59317 59131.6 58574.8 58015.8 57454.7 56981.5 56513.3 55908.7 55306 54766.3 54225.2 53840.5 53782.4 53724.3 53669 53621.4 53573.2 53020.1 52459.8 51941.7 51469.4 50923.8 50922.8 50921.8 50921 50920.2 50919.4 50492.3 50057.7 49655.1 49319.6 49050.6 48951.4 48851.8 48781 48711.3 48638.7 48450.3 48259.5 48066.8 47922.4 47790.3 47617.6 47449 47309.3 47167.6 47008.4 47001.9 46995.5 46989.1 46983.2 46977.7 46872.4 46760.1 46645.4 46532.1 46425.2 46389.6 46352.9 46313.3 46272.9 46229.1 46209 46188.7 46168.3 46147.1 46126 46100.7 46073.9 46036.9 45994.5 45953 45955.4 45957.6 45956.9 45956 45955.1 45943.8 45932.1 45919.9 45904.9 45889.7 45899.5 45908.6 45913.1 45917.1 45920.8 45920 45919.1 45918.2 45917.2 45916.1 45929.6 45943.3 45955.9 45966.7 45977 45987.2 45997.5 46007.3 46017 46026.7 46038.3 46049.7 46060.9 46071.9 46082.9 46101.3 46119.7 46138.2 46156.7 46175.3 46183.9 46192.4 46201.1 46210.2 46219.3 46242 46264.7 46288.1 46312 46335.8 46343.2 46350.5 46358.3 46366.5 46374.8 46398 46421.3 46445.5 46470.7 46495.5 46504.4 46513.3 46523 46533.2 46543.5 46563.1 46582.9 46603.3 46625.2 46646.4 46660.3 46674.2 46689.9 46706.2 46722.9 46734.4 46746 46757.7 46770.4 46782.8 46804.7 46826.9 46852.3 46878.5 46904.4 46905.5 46906.7 46908 46909.4 46910.8 46932 46953.4 46975.1 46999 47021.4 47030.9 47040.5 47051.5 47062.6 47074 47083.7 47093.4 47103.2 47113.7 47123.8 47141 47158.3 47177.3 47197.1 47216.5 47219 47221.7 47224.6 47227.5 47230.5 47244.8 47259.3 47273.8 47289.4 47304.4 47318.1 47332.3 47347.8 47363.3 47380.2 47380.3 47380.4 47380.5 47380.6 47380.6 47395.2 47410 47424.8 47440.7 47455.9 47468 47480.5 47494.1 47507.8 47520.9 47521.5 47522.2 47522.8 47523.5 47524.2 47536 47547.8 47559.8 47572.4 47584.9 47595.2 47605.5 47617.1 47629.3 47641.3 47645.3 47649.7 47654.4 47659 47663.9 47669.8 47675.7 47681.5 47687.7 47694.1 47702.9 47712 47721.7 47732.6 47743.1 47750.7 47758.8 47767.7 47776.6 47785.8 47787.9 47790.3 47792.9 47795.4 47798 47803.4 47808.8 47814.2 47819.7 47825.7 47831.9 47838.5 47845.4 47853.5 47861.3 47866.4 47871.4 47877.6 47884.3 47891 47894.6 47899.3 47903.9 47908.6 47913.9 47914.1 47914.4 47914.6 47914.9 47915.2 47919.3 47923.4 47927.6 47931.7 47936.8 47939.1 47941.6 47944.6 47948.5 47952.3 47953.5 47954.6 47956.5 47959.3 47962 47961.9 47962.4 47963.3 47964.1 47965.6 47964.7 47964.5 47964.2 47963.9 47963.5 47963.5 47963.5 47963.4 47963.4 47963.5 47962.1 47960.8 47959.4 47958 47957.2 47954.1 47951.5 47948.9 47946.7 47944.8 47940.5 47936.2 47932.4 47929.4 47926.3 47920.8 47915.3 47910.3 47906.1 47901.8 47895.2 47888.6 47882.5 47876.8 47871.3 47863.6 47856.2 47848.9 47841.7 47835 47826.3 47817.9 47809.6 47801.2 47793 47784.5 47776 47767.6 47759.1 47749.3 47748.5 47747.8 47747 47746.3 47745.6 47735.1 47724.7 47714.2 47703.7 47693.4 47681.7 47670.2 47658.7 47647.2 47635.9 47622.9 47610.4 47597.9 47585.4 47573.1 47559.2 47545.6 47532.1 47518.7 47505.4 47490.5 47475.8 47461.4 47447.1 47432.9 47417.1 47401.4 47386.1 47370.9 47355.7 47339.2 47322.6 47306.4 47290.3 47274.2 47256.9 47239.5 47222.3 47205.4 47188.5 47170.4 47152.3 47134.2 47116.5 47098.8 47080 47061.1 47042.3 47023.8 47005.3 46985.8 46966.3 46946.7 46927.4 46908.2 46888.1 46867.9 46847.7 46827.6 46807.7 46787 46766.2 46745.3 46724.6 46704.1 46682.7 46661.3 46639.9 46618.5 46597.4 46575.5 46553.5 46531.5 46509.6 46487.8 46465.5 46442.9 46420.4 46397.9 46375.6 46352.7 46329.7 46306.7 46283.7 46260.9 46237.5 46214.1 46190.6 46167.1 46143.8 46120 46096.1 46072.2 46048.3 46024.5 46000.3 45975.9 45951.6 45927.3 45903.1 45878.5 45853.8 45829.1 45804.4 45779.7 45754.8 45729.7 45704.6 45679.6 45654.6 45629.3 45603.9 45578.5 45553 45527.7 45502 45476.3 45450.6 45424.9 45399.2 45373.2 45347.2 45321.2 45295.2 45269.2 45242.9 45216.6 45190.3 45164 45137.8 45111.2 45084.7 45058.1 45031.5 45005 44978.2 44951.4 44924.6 44897.7 44870.9 44843.9 44816.8 44789.8 44762.7 44735.7 44708.4 44681.1 44653.8 44626.5 44599.3 44571.8 44544.3 44516.8 44489.3 44461.8 44434.1 44406.4 44378.7 44350.9 44323.2 44295.3 44267.4 44239.5 44211.6 44183.7 44155.6 44127.5 44099.4 44071.3 44043.2 44014.9 43986.6 43958.3 43930 43901.7 43873.2 43844.8 43816.3 43787.8 43759.3 43730.7 43702 43673.4 43644.7 43616.1 43587.3 43558.4 43529.6 43500.7 43471.9 43442.9 43413.9 43384.9 43355.9 43326.9 43297.7 43268.6 43239.4 43210.2 43181 43151.7 43122.3 43093 43063.6 43034.3 43004.8 42975.3 42945.7 42916.2 42886.7 42857 42827.3 42797.6 42767.9 42738.2 42708.4 42678.5 42648.7 42618.8 42588.9 42558.9 42528.9 42498.9 42468.8 42438.8 42408.6 42378.4 42348.2 42317.9 42287.7 42257.4 42227 42196.6 42166.2 42135.8 42105.2 42074.7 42044.1 42013.5 41982.9 41952.2 41921.5 41890.7 41860 41829.2 41798.3 41767.4 41736.4 41705.5 41674.5 41643.5 41612.3 41581.2 41550.1 41518.9 41487.7 41456.3 41425 41393.7 41362.4 41330.9 41299.4 41267.9 41236.4 41204.8 41173.1 41141.4 41109.7 41078 41046.3 41014.4 40982.5 40950.6 40918.7 40886.7 40854.6 40822.5 40790.4 40758.3 40726.1 40693.8 40661.5 40629.2 40596.8 40564.5 40532 40499.4 40466.9 40434.3 40401.7 40369 40336.3 40303.5 40270.8 40237.9 40205 40172 40139 40106.1 40073 40039.9 40006.7 39973.4 39940.2 39907 39873.6 39840.1 39806.7 39773.3 39739.8 39706.1 39672.5 39638.8 39605.1 39571.4 39537.5 39503.6 39469.7 39435.8 39401.8 39367.7 39333.6 39299.4 39265.3 39231 39196.7 39162.3 39127.9 39093.5 39059 39024.5 38989.8 38955.2 38920.5 38885.8 38851 38816.1 38781.2 38746.3 38711.3 38676.2 38641 38605.9 38570.7 38535.5 38500.1 38464.7 38429.3 38393.9 38358.4 38322.8 38287.1 38251.4 38215.7 38180 38144.1 38108.2 38072.2 38036.2 38000.2 37964.1 37927.9 37891.7 37855.4 37819.1 37782.7 37746.2 37709.7 37673.2 37636.7 37600 37563.2 37526.4 37489.7 37452.8 37415.8 37378.8 37341.8 37304.7 37267.6 37230.3 37193 37155.7 37118.3 37080.9 37043.4 37005.8 36968.2 36930.5 36892.8 36855 36817.1 36779.2 36741.3 36703.3 36665.2 36627 36588.8 36550.6 36512.3 36473.9 36435.5 36397 36358.5 36319.9 36281.2 36242.4 36203.6 36164.8 36126 36086.9 36047.9 36008.8 35969.7 35930.5 35891.2 35851.9 35812.5 35773 35733.6 35694 35654.3 35614.6 35574.9 35535.1 35495.2 35455.2 35415.2 35375.2 35335.1 35294.9 35254.6 35214.3 35173.9 35133.5 35093 35052.4 35011.8 34971.1 34930.4 34889.6 34848.7 34807.7 34766.7 34725.7 34684.5 34643.3 34602.1 34560.8 34519.4 34477.9 34436.4 34394.8 34353.2 34311.5 34269.7 34227.8 34185.9 34144 34102 34059.8 34017.7 33975.5 33933.2 33890.8 33848.4 33805.9 33763.3 33720.7 33678.1 33635.2 33592.4 33549.5 33506.6 33463.6 33420.5 33377.3 33334.1 33290.8 33247.5 33204 33160.5 33117 33073.3 33029.7 32985.9 32942.1 32898.2 32854.2 32810.2 32766 32721.9 32677.6 32633.3 32589 32544.5 32500 32455.4 32410.7 32366.1 32321.2 32276.4 32231.4 32186.4 32141.4 32096.2 32051 32005.7 31960.4 31915 31869.4 31823.9 31778.2 31732.5 31686.8 31640.9 31595 31549 31502.9 31456.9 31410.6 31364.3 31318 31271.5 31225.1 31178.5 31131.9 31085.1 31038.4 30991.6 30944.6 30897.6 30850.5 30803.4 30756.2 30708.8 30661.5 30614 30566.5 30519 30471.3 30423.5 30375.7 30327.8 30279.9 30231.8 30183.7 30135.6 30087.3 30039 29990.5 29942.1 29893.5 29844.9 29796.2 29747.4 29698.5 29649.6 29600.5 29551.5 29502.3 29453 29403.7 29354.3 29304.9 29255.3 29205.6 29155.9 29106.1 29056.4 29006.3 28956.3 28906.2 28856 28805.9 28755.4 28705 28654.5 28603.9 28553.4 28502.6 28451.7 28400.8 28349.9 28298.9 28247.7 28196.5 28145.2 28093.8 28042.4 27990.8 27939.2 27887.4 27835.7 27783.9 27731.8 27679.8 27627.7 27575.5 27523.3 27470.8 27418.4 27365.8 27313.2 27260.6 27207.7 27154.8 27101.9 27048.9 26995.8 26942.5 26889.2 26835.8 26782.4 26728.9 26675.2 26621.4 26567.6 26513.8 26459.9 26405.7 26351.6 26297.4 26243.1 26188.8 26134.2 26079.6 26025 25970.3 25915.6 25860.6 25805.7 25750.7 25695.6 25640.5 25585.2 25529.8 25474.5 25419.1 25363.7 25308 25252.4 25196.8 25141.2 25085.5 25029.7 24973.9 24918.1 24862.4 24806.7 24750.7 24695 24639.3 24583.6 24528 24472.2 24416.9 24361.8 24306.8 24252.1 24197.4 24142.4 24087.4 24032.4 23977 23922.3 23873.6 23825 23776.4 23732.6 23683.5 23618.1 23552.7 23487.1 23412.7 23361.5 23331.1 23301 23271.3 23257 23252.9 23248.7 23244.6 23240.4 23238.8 23236.2 23231 23225.7 23220.5 23214.7 23187.8 23160.6 23133.1 23105.4 23061.8 22985.9 22916.9 22848 22779.2 22722.9 22671.7 22615.4 22559.1 22502.7 22440 22372.3 22304.2 22236.1 22168 22099.5 22028.2 21955 21881.8 21808.5 21733.2 21654.9 21575.2 21495.4 21415.5 21334.1 21249.9 21163.7 21077.6 20991.4 20903.5 20812.5 20719.5 20626.6 20533.5 20438.7 20340.7 20240.4 20140.1 20039.7 19937.4 19831.5 19723.3 19615 19506.6 19396.2 19281.8 19164.8 19047.6 18930.2 18810.5 18686.4 18559.7 18432.8 18305.8 18176.4 18042.3 17904.3 17766.2 17627.8 17486 17339 17189.3 17039.5 16889.5 16737.2 16579.4 16414.9 16250 16084.7 15913.3 15735.5 15557.4 15379.2 15201.1 15023 14838.3 14638.8 14438.5 14237.4 14022.2 13798.9 13585.8 13373.4 13161.4 12960.1 12751.2 12503.7 12253.9 12002 11712.7 11412.6 11157.2 10904.8 10655 10450.2 10237.6 9921.66 9598.09 9265.93 8833.24 8384.26 8071.5 7773.88 7494.29 7349.19 7198.15 6801.67 6357.21 5838.97 5089.6 4311.32 3779.17 3398.25 3250.9 3316.63 3382.94 3361.99 2777.12 1388.15 0