# vtk DataFile Version 2.0
track0
ASCII
DATASET POLYDATA
POINTS 12278 float
-0.0205 0.001 1e-05
-0.02052 0.000999216 1e-05
-0.02054 0.000998592 1e-05
-0.02056 0.000998126 1e-05
-0.02058 0.000997818 1e-05
-0.0206 0.000997665 1e-05
-0.0205 0.00367778 1e-05
-0.02052 0.00367703 1e-05
-0.02054 0.00367643 1e-05
-0.02056 0.00367599 1e-05
-0.02058 0.00367569 1e-05
-0.0206 0.00367554 1e-05
-0.0205 0.00635556 1e-05
-0.02052 0.00635527 1e-05
-0.02054 0.00635505 1e-05
-0.02056 0.00635488 1e-05
-0.02058 0.00635476 1e-05
-0.0206 0.00635471 1e-05
-0.0205 0.00903333 1e-05
-0.02052 0.00903311 1e-05
-0.02054 0.00903293 1e-05
-0.02056 0.0090328 1e-05
-0.02058 0.00903271 1e-05
-0.0206 0.00903266 1e-05
-0.0205 0.0117111 1e-05
-0.02052 0.0117111 1e-05
-0.02054 0.011711 1e-05
-0.02056 0.011711 1e-05
-0.02058 0.011711 1e-05
-0.0206 0.011711 1e-05
-0.0205 0.0143889 1e-05
-0.02052 0.014389 1e-05
-0.02054 0.014389 1e-05
-0.02056 0.0143891 1e-05
-0.02058 0.0143891 1e-05
-0.0206 0.0143891 1e-05
-0.0205 0.0170667 1e-05
-0.02052 0.017067 1e-05
-0.02054 0.0170672 1e-05
-0.02056 0.0170674 1e-05
-0.02058 0.0170675 1e-05
-0.0206 0.0170676 1e-05
-0.0205 0.0197444 1e-05
-0.02052 0.019745 1e-05
-0.02054 0.0197454 1e-05
-0.02056 0.0197457 1e-05
-0.02058 0.0197459 1e-05
-0.0206 0.019746 1e-05
-0.0205 0.0224222 1e-05
-0.02052 0.022423 1e-05
-0.02054 0.0224236 1e-05
-0.02056 0.0224241 1e-05
-0.02058 0.0224244 1e-05
-0.0206 0.0224245 1e-05
-0.0205 0.0251 1e-05
-0.02052 0.0251003 1e-05
-0.02054 0.0251005 1e-05
-0.02056 0.0251007 1e-05
-0.02058 0.0251008 1e-05
-0.0206 0.0251008 1e-05
-0.0205 0.001 1e-05
-0.0203632 0.00100536 1e-05
-0.0202266 0.00101331 1e-05
-0.0200901 0.00102296 1e-05
-0.0200427 0.00102682 1e-05
-0.0198376 0.00104418 1e-05
-0.0196338 0.00107322 1e-05
-0.0194327 0.00111734 1e-05
-0.0192368 0.00118024 1e-05
-0.0190172 0.00124951 1e-05
-0.0189002 0.00128348 1e-05
-0.0187827 0.00131598 1e-05
-0.0186649 0.001347 1e-05
-0.0185469 0.001377 1e-05
-0.0183807 0.00141936 1e-05
-0.0182041 0.00146458 1e-05
-0.0180267 0.00150692 1e-05
-0.0178487 0.0015464 1e-05
-0.0176703 0.00158389 1e-05
-0.0174976 0.00161991 1e-05
-0.0172846 0.00166394 1e-05
-0.0170715 0.00170741 1e-05
-0.0168583 0.00175029 1e-05
-0.0166449 0.00179219 1e-05
-0.0163945 0.00184007 1e-05
-0.0163234 0.00185324 1e-05
-0.0162522 0.00186629 1e-05
-0.016181 0.00187921 1e-05
-0.0161097 0.00189201 1e-05
-0.0160387 0.0019046 1e-05
-0.0157586 0.0019535 1e-05
-0.0154779 0.00199931 1e-05
-0.0151968 0.00204225 1e-05
-0.0149154 0.00208283 1e-05
-0.0146381 0.00212134 1e-05
-0.0143838 0.00215527 1e-05
-0.0141293 0.00218766 1e-05
-0.0138747 0.00221855 1e-05
-0.0136198 0.00224797 1e-05
-0.0132934 0.00228369 1e-05
-0.0132791 0.00228515 1e-05
-0.0132648 0.0022866 1e-05
-0.0132504 0.00228805 1e-05
-0.0132361 0.0022895 1e-05
-0.0132214 0.00229098 1e-05
-0.0129776 0.00231543 1e-05
-0.0127337 0.00233865 1e-05
-0.0124897 0.00236061 1e-05
-0.0122456 0.0023813 1e-05
-0.0120025 0.00240058 1e-05
-0.0117547 0.00241909 1e-05
-0.0115067 0.00243627 1e-05
-0.0112587 0.00245231 1e-05
-0.0110106 0.00246734 1e-05
-0.0107632 0.00248136 1e-05
-0.0105252 0.00249391 1e-05
-0.0102872 0.00250547 1e-05
-0.0100491 0.00251602 1e-05
-0.00981105 0.00252575 1e-05
-0.00957337 0.00253472 1e-05
-0.00934491 0.00254261 1e-05
-0.00911643 0.00254974 1e-05
-0.00888792 0.00255611 1e-05
-0.0086594 0.00256172 1e-05
-0.00843108 0.00256669 1e-05
-0.00821175 0.00257085 1e-05
-0.00799241 0.00257439 1e-05
-0.00777306 0.00257731 1e-05
-0.0075537 0.00257953 1e-05
-0.00733443 0.00258115 1e-05
-0.00712387 0.00258213 1e-05
-0.0069133 0.00258256 1e-05
-0.00670273 0.00258244 1e-05
-0.00649216 0.00258162 1e-05
-0.0062816 0.00258018 1e-05
-0.00607944 0.0025782 1e-05
-0.0058773 0.00257566 1e-05
-0.00567516 0.00257257 1e-05
-0.00547303 0.00256875 1e-05
-0.00527083 0.0025642 1e-05
-0.00507675 0.00255913 1e-05
-0.00488269 0.00255344 1e-05
-0.00468865 0.00254712 1e-05
-0.00449464 0.00253998 1e-05
-0.00430044 0.00253192 1e-05
-0.00411412 0.0025233 1e-05
-0.00392784 0.00251389 1e-05
-0.00374159 0.0025037 1e-05
-0.0035554 0.00249256 1e-05
-0.00336883 0.00248017 1e-05
-0.00318995 0.00246713 1e-05
-0.00301115 0.00245301 1e-05
-0.00283245 0.00243776 1e-05
-0.00265386 0.00242123 1e-05
-0.00247443 0.00240316 1e-05
-0.0023027 0.00238427 1e-05
-0.00213114 0.00236386 1e-05
-0.00195982 0.00234156 1e-05
-0.00178875 0.0023174 1e-05
-0.00161577 0.00229108 1e-05
-0.00161565 0.00229106 1e-05
-0.00161553 0.00229104 1e-05
-0.00161541 0.00229102 1e-05
-0.00161528 0.002291 1e-05
-0.00161516 0.00229098 1e-05
-0.00145041 0.00226408 1e-05
-0.00128607 0.00223482 1e-05
-0.00112214 0.00220327 1e-05
-0.000958669 0.00216948 1e-05
-0.000791418 0.00213239 1e-05
-0.000633135 0.00209428 1e-05
-0.000475556 0.00205335 1e-05
-0.000318719 0.00200966 1e-05
-0.000162834 0.00196269 1e-05
0 0.00190954 1e-05
3.73549e-05 0.00189634 1e-05
7.46097e-05 0.00188285 1e-05
0.000111766 0.0018691 1e-05
0.000148825 0.00185508 1e-05
0.000179144 0.00184338 1e-05
0.000248992 0.00181594 1e-05
0.00031843 0.00178749 1e-05
0.000387443 0.00175801 1e-05
0.000456017 0.00172753 1e-05
0.000528387 0.00169416 1e-05
0.000634886 0.00164318 1e-05
0.000740278 0.00158995 1e-05
0.00084451 0.00153449 1e-05
0.00094762 0.00147696 1e-05
0.00101993 0.00143469 1e-05
0.00102812 0.00142974 1e-05
0.0010363 0.00142477 1e-05
0.00104447 0.00141979 1e-05
0.00105264 0.0014148 1e-05
0.00106088 0.00140973 1e-05
0.00116821 0.00134354 1e-05
0.00127404 0.00127499 1e-05
0.00137827 0.00120403 1e-05
0.00148099 0.0011309 1e-05
0.00159673 0.00104511 1e-05
0.00159689 0.00104499 1e-05
0.00159705 0.00104487 1e-05
0.0015972 0.00104474 1e-05
0.00159736 0.00104462 1e-05
0.00159752 0.0010445 1e-05
0.00169219 0.000970924 1e-05
0.00178546 0.000895582 1e-05
0.00187726 0.000818441 1e-05
0.00196763 0.000739646 1e-05
0.00203803 0.000676367 1e-05
0.00205809 0.000657882 1e-05
0.00207806 0.000639309 1e-05
0.00209796 0.000620645 1e-05
0.00211779 0.000601919 1e-05
0.00213833 0.000582409 1e-05
0.00219147 0.000531586 1e-05
0.00224411 0.000480246 1e-05
0.00229623 0.000428381 1e-05
0.00234783 0.000375985 1e-05
0.00239413 0.000328255 1e-05
0.00245197 0.000267799 1e-05
0.00250918 0.000206743 1e-05
0.00256576 0.000145104 1e-05
0.00262183 8.29987e-05 1e-05
0.00268334 1.36816e-05 1e-05
0.00268572 1.09453e-05 1e-05
0.0026881 8.20792e-06 1e-05
0.00269048 5.46957e-06 1e-05
0.00269285 2.7302e-06 1e-05
0.00269522 0 1e-05
0.00275912 -7.37368e-05 1e-05
0.0028224 -0.000148005 1e-05
0.00288504 -0.000222813 1e-05
0.00294701 -0.000298173 1e-05
0.00300408 -0.000368654 1e-05
0.00304978 -0.000425929 1e-05
0.00309518 -0.000483449 1e-05
0.00314026 -0.000541212 1e-05
0.00318509 -0.000599169 1e-05
0.00323259 -0.000661139 1e-05
0.00325064 -0.00068493 1e-05
0.00326864 -0.000708761 1e-05
0.00328658 -0.000732632 1e-05
0.00330448 -0.000756542 1e-05
0.00332202 -0.00078009 1e-05
0.00339017 -0.000871877 1e-05
0.00345771 -0.000964107 1e-05
0.00352463 -0.00105679 1e-05
0.003591 -0.00114986 1e-05
0.00365386 -0.00123896 1e-05
0.00368031 -0.00127684 1e-05
0.00370669 -0.00131478 1e-05
0.00373298 -0.00135277 1e-05
0.00375923 -0.0013908 1e-05
0.00378611 -0.00142986 1e-05
0.00383009 -0.00149398 1e-05
0.00387387 -0.00155825 1e-05
0.00391742 -0.00162267 1e-05
0.00396074 -0.00168724 1e-05
0.0040029 -0.00175044 1e-05
0.00407111 -0.00185326 1e-05
0.0041389 -0.00195637 1e-05
0.00420626 -0.00205975 1e-05
0.00427334 -0.00216332 1e-05
0.00434393 -0.00227299 1e-05
0.00434998 -0.00228245 1e-05
0.00435603 -0.00229192 1e-05
0.00436207 -0.00230139 1e-05
0.00436811 -0.00231086 1e-05
0.00437413 -0.0023203 1e-05
0.00445497 -0.00244725 1e-05
0.00453537 -0.00257449 1e-05
0.00461536 -0.00270197 1e-05
0.00469501 -0.00282968 1e-05
0.00477288 -0.00295498 1e-05
0.00479952 -0.00299799 1e-05
0.00482614 -0.00304103 1e-05
0.00485273 -0.00308408 1e-05
0.00487931 -0.00312714 1e-05
0.00490609 -0.00317051 1e-05
0.00496672 -0.00326874 1e-05
0.00502721 -0.00336705 1e-05
0.00508755 -0.00346546 1e-05
0.00514775 -0.00356395 1e-05
0.0052074 -0.00366161 1e-05
0.00526044 -0.00374852 1e-05
0.00531345 -0.00383545 1e-05
0.00536641 -0.00392241 1e-05
0.0054194 -0.00400935 1e-05
0.00547262 -0.00409656 1e-05
0.00551559 -0.00416687 1e-05
0.00555853 -0.0042372 1e-05
0.00560144 -0.00430756 1e-05
0.00564432 -0.00437792 1e-05
0.00568714 -0.00444811 1e-05
0.00575843 -0.00456486 1e-05
0.00582975 -0.00468159 1e-05
0.00590113 -0.00479828 1e-05
0.00597264 -0.0049149 1e-05
0.00604356 -0.00503007 1e-05
0.00607981 -0.00508871 1e-05
0.00611606 -0.00514734 1e-05
0.00615233 -0.00520597 1e-05
0.00618861 -0.00526458 1e-05
0.00622501 -0.00532326 1e-05
0.00630379 -0.00545004 1e-05
0.00638277 -0.00557671 1e-05
0.00646194 -0.00570325 1e-05
0.00654138 -0.00582962 1e-05
0.00661893 -0.00595218 1e-05
0.00666282 -0.00602108 1e-05
0.00670676 -0.00608995 1e-05
0.00675075 -0.00615879 1e-05
0.00679482 -0.00622757 1e-05
0.00683928 -0.00629671 1e-05
0.00691118 -0.00640815 1e-05
0.00698333 -0.00651942 1e-05
0.00705574 -0.00663052 1e-05
0.00712845 -0.00674144 1e-05
0.00719878 -0.00684793 1e-05
0.00726944 -0.00695415 1e-05
0.00734033 -0.00706022 1e-05
0.00741144 -0.00716615 1e-05
0.00748286 -0.00727186 1e-05
0.00755582 -0.00737909 1e-05
0.00760128 -0.00744543 1e-05
0.00764687 -0.00751169 1e-05
0.00769259 -0.00757786 1e-05
0.00773844 -0.00764394 1e-05
0.00778313 -0.00770801 1e-05
0.00790091 -0.00787599 1e-05
0.00801946 -0.00804343 1e-05
0.00813878 -0.00821032 1e-05
0.0082591 -0.00837649 1e-05
0.00837203 -0.00853041 1e-05
0.00837969 -0.0085407 1e-05
0.00838735 -0.008551 1e-05
0.00839501 -0.00856129 1e-05
0.00840268 -0.00857158 1e-05
0.00841037 -0.00858189 1e-05
0.0085214 -0.00873061 1e-05
0.00863325 -0.00887871 1e-05
0.00874595 -0.00902617 1e-05
0.00885951 -0.00917296 1e-05
0.00896551 -0.00930812 1e-05
0.00903006 -0.00938936 1e-05
0.00909487 -0.00947039 1e-05
0.00915994 -0.00955121 1e-05
0.00922532 -0.00963178 1e-05
0.00929287 -0.00971438 1e-05
0.00934701 -0.00978007 1e-05
0.00940136 -0.0098456 1e-05
0.00945589 -0.00991096 1e-05
0.00951063 -0.00997616 1e-05
0.0095636 -0.0100389 1e-05
[...]
POINT_DATA 12278
 FIELD attributes 1
U 3 12278 float
9.72339 	0.381311 	0 9.77871 	0.305049 	0 9.83405 	0.228765 	0 9.8894 	0.152465 	0 9.94476 	0.0761532 	0 10 	0 	0
10.0671 	0.375483 	0 10.0537 	0.300387 	0 10.0403 	0.225271 	0 10.0268 	0.150141 	0 10.0134 	0.0750008 	0 10 	0 	0
10.0364 	0.141572 	0 10.0291 	0.113304 	0 10.0218 	0.085089 	0 10.0145 	0.0569263 	0 10.0071 	0.0288164 	0 10 	0 	0
10.0137 	0.111519 	0 10.011 	0.0892152 	0 10.0082 	0.0669109 	0 10.0055 	0.0446062 	0 10.0027 	0.0223012 	0 10 	0 	0
10.0097 	0.0196535 	0 10.0078 	0.0157228 	0 10.0058 	0.0117921 	0 10.0039 	0.00786141 	0 10.0019 	0.00393069 	0 10 	0 	0
10.0102 	-0.0372874 	0 10.0082 	-0.0298299 	0 10.0061 	-0.0223724 	0 10.0041 	-0.0149149 	0 10.002 	-0.00745738 	0 10 	0 	0
10.0174 	-0.148996 	0 10.0139 	-0.119197 	0 10.0105 	-0.0893967 	0 10.007 	-0.0595953 	0 10.0035 	-0.0297932 	0 10 	0 	0
10.0362 	-0.265901 	0 10.029 	-0.212721 	0 10.0217 	-0.159534 	0 10.0145 	-0.106342 	0 10.0072 	-0.053146 	0 10 	0 	0
10.0563 	-0.387167 	0 10.045 	-0.309734 	0 10.0338 	-0.23228 	0 10.0225 	-0.15481 	0 10.0112 	-0.0773281 	0 10 	0 	0
8.30133 	-0.114495 	0 8.4287 	-0.091596 	0 8.55659 	-0.0686962 	0 8.68498 	-0.0457957 	0 8.81385 	-0.0228949 	0 8.94315 	0 	0
9.72339 	0.381311 	0 9.5415 	0.555241 	0 9.39671 	0.663651 	0 9.26203 	0.754271 	0 9.2183 	0.780385 	0 8.95344 	1.27614 	0 8.70578 	1.91036 	0 8.48173 	2.72184 	0 8.46724 	2.67123 	0 8.47252 	2.45986 	0 8.50117 	2.35314 	0 8.52498 	2.2443 	0 8.51221 	2.16311 	0 8.42487 	2.14738 	0 8.30214 	2.12559 	0 8.30117 	1.9821 	0 8.28715 	1.83798 	0 8.21181 	1.72569 	0 8.035 	1.67507 	0 7.86306 	1.62575 	0 7.68323 	1.56759 	0 7.50177 	1.50875 	0 7.42793 	1.45839 	0 7.36148 	1.40771 	0 7.27865 	1.34671 	0 7.22249 	1.32376 	0 7.16614 	1.3007 	0 7.10958 	1.27753 	0 7.07928 	1.2544 	0 7.05291 	1.23121 	0 6.97394 	1.13838 	0 6.88841 	1.05226 	0 6.79883 	0.980329 	0 6.71191 	0.932083 	0 6.6228 	0.883659 	0 6.55089 	0.833775 	0 6.49228 	0.787588 	0 6.44246 	0.743856 	0 6.3887 	0.699092 	0 6.31694 	0.642267 	0 6.31477 	0.640172 	0 6.3132 	0.638348 	0 6.31172 	0.636561 	0 6.31022 	0.634772 	0 6.30868 	0.632934 	0 6.27132 	0.597064 	0 6.23151 	0.560865 	0 6.18921 	0.524334 	0 6.1444 	0.487465 	0 6.10942 	0.456254 	0 6.07602 	0.420972 	0 6.0457 	0.390997 	0 6.017 	0.364553 	0 5.99442 	0.339603 	0 5.97315 	0.315199 	0 5.95245 	0.289065 	0 5.92972 	0.262722 	0 5.91347 	0.241661 	0 5.90339 	0.222657 	0 5.89181 	0.203591 	0 5.87916 	0.183524 	0 5.86497 	0.163357 	0 5.85626 	0.143793 	0 5.85336 	0.127405 	0 5.84918 	0.11099 	0 5.84296 	0.0943552 	0 5.83549 	0.0776791 	0 5.8334 	0.058977 	0 5.8363 	0.0431034 	0 5.83799 	0.0272303 	0 5.83716 	0.0119329 	0 5.83533 	-0.00343376 	0 5.83919 	-0.0225347 	0 5.8473 	-0.0400259 	0 5.85423 	-0.0574629 	0 5.85859 	-0.0735295 	0 5.86183 	-0.0895702 	0 5.8712 	-0.110958 	0 5.88466 	-0.132495 	0 5.89663 	-0.153962 	0 5.90648 	-0.173328 	0 5.91505 	-0.192624 	0 5.92937 	-0.218083 	0 5.94825 	-0.247038 	0 5.96525 	-0.275854 	0 5.98118 	-0.302085 	0 5.99548 	-0.328168 	0 6.01452 	-0.359782 	0 6.03862 	-0.400945 	0 6.06022 	-0.441865 	0 6.08256 	-0.480328 	0 6.10476 	-0.520948 	0 6.13006 	-0.567604 	0 6.15454 	-0.619677 	0 6.17867 	-0.679486 	0 6.20604 	-0.738477 	0 6.23739 	-0.811867 	0 6.26486 	-0.884721 	0 6.28851 	-0.957037 	0 6.30862 	-1.02975 	0 6.30864 	-1.02981 	0 6.30866 	-1.02989 	0 6.30868 	-1.02998 	0 6.3087 	-1.03006 	0 6.30872 	-1.03014 	0 6.3325 	-1.1273 	0 6.35103 	-1.22236 	0 6.36444 	-1.31535 	0 6.37519 	-1.41402 	0 6.38846 	-1.53819 	0 6.40626 	-1.66393 	0 6.41782 	-1.78758 	0 6.4057 	-1.93008 	2.62007e-20 6.36932 	-2.07904 	5.37109e-20 6.31917 	-2.23382 	8.12129e-20 6.31095 	-2.28429 	2.3337e-20 6.29877 	-2.33164 	5.78186e-21 6.2824 	-2.37568 	3.12225e-20 6.26547 	-2.41946 	5.72841e-20 6.25112 	-2.45516 	7.91704e-20 6.22473 	-2.55099 	1.7892e-19 6.1964 	-2.64627 	2.82829e-19 6.16612 	-2.74095 	3.9087e-19 6.11998 	-2.82208 	2.74262e-19 6.06345 	-2.9024 	6.2473e-20 5.98349 	-3.02206 	4.92555e-20 5.89833 	-3.13875 	3.61747e-20 5.80146 	-3.23659 	8.55777e-21 5.7002 	-3.33249 	-1.80595e-20 5.62522 	-3.39911 	-3.62148e-20 5.61609 	-3.40839 	-3.60073e-20 5.60693 	-3.41767 	-3.57849e-20 5.5977 	-3.4263 	-3.69332e-20 5.58833 	-3.43324 	-4.17298e-20 5.57882 	-3.44025 	-4.65721e-20 5.45893 	-3.53645 	-2.83037e-20 5.33372 	-3.6307 	-9.46256e-21 5.20768 	-3.70766 	1.19292e-22 5.08146 	-3.76654 	-2.00899e-22 4.93238 	-3.83189 	6.79157e-23 4.93215 	-3.83202 	3.88647e-23 4.93192 	-3.83215 	9.81344e-24 4.9317 	-3.83224 	1.72279e-23 4.9315 	-3.83231 	4.3244e-23 4.9313 	-3.83238 	6.92677e-23 4.80557 	-3.88173 	1.12256e-21 4.67575 	-3.92948 	2.48039e-21 4.54881 	-3.96598 	4.20852e-21 4.43116 	-3.98308 	6.33399e-21 4.33583 	-3.99545 	8.20496e-21 4.30551 	-4.0031 	1.33476e-20 4.27499 	-4.01068 	1.85281e-20 4.2497 	-4.0124 	9.21513e-21 4.22455 	-4.01376 	-8.26823e-22 4.19827 	-4.01511 	-1.12382e-20 4.12444 	-4.02242 	-6.36295e-20 4.04943 	-4.02921 	-1.15652e-19 3.97339 	-4.03532 	-1.65856e-19 3.9092 	-4.02979 	-1.01591e-19 3.85037 	-4.02441 	-4.30512e-20 3.77282 	-4.02655 	4.16028e-21 3.69537 	-4.02581 	4.19693e-20 3.6235 	-4.0137 	3.41729e-20 3.55056 	-4.00111 	2.66472e-20 3.46854 	-3.98663 	1.86217e-20 3.46518 	-3.98621 	1.92514e-20 3.46182 	-3.98578 	1.98813e-20 3.45846 	-3.98536 	2.05114e-20 3.45528 	-3.98464 	2.10402e-20 3.4522 	-3.98379 	2.15272e-20 3.38407 	-3.97178 	1.41229e-20 3.31388 	-3.95763 	7.41448e-21 3.24248 	-3.94277 	7.00679e-22 3.1707 	-3.91571 	6.17193e-21 3.10306 	-3.88894 	1.23555e-20 3.06099 	-3.87893 	3.47214e-20 3.01861 	-3.86755 	5.06168e-20 2.97702 	-3.84859 	2.33618e-20 2.93503 	-3.82941 	-3.83626e-21 2.88984 	-3.80872 	-3.27551e-20 2.8717 	-3.80216 	-3.88656e-20 2.85348 	-3.79555 	-4.49783e-20 2.83517 	-3.78889 	-5.10932e-20 2.81696 	-3.77981 	-5.72936e-20 2.79901 	-3.77029 	-6.34125e-20 2.74562 	-3.74923 	-1.07139e-19 2.69139 	-3.72768 	-1.50987e-19 2.63659 	-3.69704 	-1.46192e-19 2.58217 	-3.65966 	-8.81839e-20 2.52965 	-3.62356 	-3.27035e-20 2.51273 	-3.61464 	2.04577e-21 2.49577 	-3.60552 	3.51931e-20 2.47991 	-3.59314 	2.99422e-20 2.46398 	-3.5807 	2.47264e-20 2.44757 	-3.5679 	1.94105e-20 2.41702 	-3.54881 	5.65403e-20 2.38621 	-3.52953 	9.35906e-20 2.35515 	-3.51005 	1.30559e-19 2.32515 	-3.48553 	1.03458e-19 2.29573 	-3.46108 	7.22951e-20 2.25881 	-3.4354 	4.24507e-20 2.22143 	-3.40939 	1.2574e-20 2.18687 	-3.37655 	-2.88938e-21 2.15207 	-3.34335 	-1.80917e-20 2.11495 	-3.30803 	-3.41933e-20 2.11123 	-3.30517 	-3.1764e-20 2.10751 	-3.3023 	-2.93376e-20 2.10379 	-3.29943 	-2.6914e-20 2.10028 	-3.29599 	-3.39816e-20 2.09678 	-3.29254 	-4.1347e-20 2.06006 	-3.26026 	-1.64674e-19 2.02433 	-3.22594 	-2.56664e-19 1.98928 	-3.18983 	-2.99663e-19 1.95705 	-3.14894 	-1.93324e-19 1.92529 	-3.10872 	-8.89871e-20 1.91669 	-3.09904 	-7.79005e-20 1.90806 	-3.08935 	-6.68095e-20 1.90073 	-3.07851 	-5.65422e-20 1.8937 	-3.06741 	-4.64655e-20 1.88661 	-3.05622 	-3.63131e-20 1.86467 	-3.03084 	-1.17688e-20 1.84263 	-3.00536 	1.27969e-20 1.82103 	-2.97919 	2.99785e-20 1.802 	-2.95022 	1.21406e-20 1.7831 	-2.92147 	-5.53363e-21 1.76971 	-2.90251 	-2.11495e-20 1.75629 	-2.88353 	-3.67537e-20 1.74505 	-2.86324 	-1.81203e-20 1.73475 	-2.84244 	1.47077e-20 1.72445 	-2.82161 	4.76425e-20 1.71212 	-2.80441 	1.21362e-20 1.69977 	-2.7872 	-2.33198e-20 1.68805 	-2.7695 	-3.49431e-20 1.67797 	-2.75065 	1.29458e-20 1.66793 	-2.73186 	6.07032e-20 1.6546 	-2.70766 	1.97473e-19 1.6413 	-2.68348 	3.34182e-19 1.63037 	-2.65854 	2.96356e-19 1.62122 	-2.6331 	1.33611e-19 1.6123 	-2.60807 	-2.78275e-20 1.60449 	-2.59471 	-5.73778e-20 1.59669 	-2.58135 	-8.69359e-20 1.5897 	-2.56765 	-8.97855e-20 1.58382 	-2.55349 	-5.62861e-20 1.57796 	-2.53934 	-2.27601e-20 1.56797 	-2.51482 	-2.46212e-20 1.55809 	-2.4904 	-2.6522e-20 1.55015 	-2.46585 	-1.93242e-20 1.54471 	-2.44116 	-4.91031e-22 1.53964 	-2.41735 	1.77613e-20 1.53299 	-2.40286 	2.97326e-20 1.52638 	-2.3884 	4.16991e-20 1.52107 	-2.37372 	4.57315e-20 1.51672 	-2.35889 	4.41091e-20 1.5124 	-2.34403 	4.24567e-20 1.50715 	-2.32429 	2.55745e-20 1.50205 	-2.30466 	8.66673e-21 1.49801 	-2.28524 	-3.12889e-21 1.49666 	-2.26619 	-1.11648e-21 1.49556 	-2.24803 	8.16752e-22 1.48859 	-2.22752 	7.62289e-20 1.48173 	-2.20711 	1.51868e-19 1.47746 	-2.18686 	1.25753e-19 1.47413 	-2.16676 	6.77894e-20 1.47091 	-2.14648 	8.99923e-21 1.4697 	-2.13593 	-2.33879e-20 1.46856 	-2.12543 	-5.57315e-20 1.46767 	-2.1151 	-8.20682e-20 1.4692 	-2.10621 	-3.65171e-20 1.47077 	-2.09764 	7.88464e-21 1.46364 	-2.06742 	4.60763e-21 1.45681 	-2.03749 	1.31283e-21 1.45604 	-2.01092 	-2.34788e-20 1.45661 	-1.98521 	-5.1757e-20 1.45921 	-1.96224 	-7.49107e-20 1.45874 	-1.96029 	-6.86117e-20 1.45827 	-1.95834 	-6.23657e-20 1.45822 	-1.9566 	-6.70813e-20 1.45817 	-1.95485 	-7.17945e-20 1.45813 	-1.95311 	-7.65181e-20 1.45625 	-1.92817 	-2.09624e-19 1.45474 	-1.90353 	-3.41995e-19 1.45397 	-1.87947 	-4.46766e-19 1.45822 	-1.85924 	-1.91257e-19 1.46259 	-1.84087 	4.71182e-20 1.46044 	-1.82598 	1.11139e-19 1.45841 	-1.81119 	1.74954e-19 1.45933 	-1.79851 	1.42279e-19 1.46037 	-1.78595 	1.09705e-19 1.46158 	-1.77313 	7.63135e-20 1.4625 	-1.76355 	6.73749e-20 1.46351 	-1.75404 	5.84582e-20 1.4646 	-1.74459 	4.95639e-20 1.46722 	-1.7364 	5.16404e-20 1.46989 	-1.72862 	5.41592e-20 1.46937 	-1.70536 	2.94679e-20 1.46921 	-1.68238 	4.71467e-21 1.47213 	-1.66182 	2.02685e-20 1.47673 	-1.64235 	4.53557e-20 1.48267 	-1.62524 	6.85873e-20 1.48265 	-1.62119 	6.74737e-20 1.48273 	-1.61721 	6.76366e-20 1.48332 	-1.6136 	7.51627e-20 1.48392 	-1.61001 	8.26868e-20 1.48454 	-1.60638 	9.02984e-20 1.48725 	-1.59062 	1.39726e-19 1.49023 	-1.57507 	1.89032e-19 1.49347 	-1.55971 	2.38211e-19 1.49866 	-1.5462 	1.68541e-19 1.50407 	-1.53401 	8.21816e-20 1.50573 	-1.51453 	1.55475e-19 1.50823 	-1.49579 	2.03538e-19 1.51285 	-1.47898 	1.61721e-19 1.51781 	-1.46243 	1.20434e-19 1.52351 	-1.44495 	7.66866e-20 1.52354 	-1.44487 	7.6391e-20 1.52357 	-1.44479 	7.60954e-20 1.5236 	-1.44471 	7.57999e-20 1.52363 	-1.44464 	7.61928e-20 1.52367 	-1.44457 	7.68873e-20 1.52806 	-1.42753 	1.26791e-19 1.53287 	-1.41078 	1.74837e-19 1.53805 	-1.3943 	2.22491e-19 1.54483 	-1.37958 	1.84289e-19 1.55193 	-1.36666 	1.1716e-19 1.55526 	-1.34905 	2.03189e-19 1.55948 	-1.33234 	2.39354e-19 1.56512 	-1.31719 	1.74609e-19 1.57111 	-1.30229 	1.10078e-19 1.57746 	-1.28874 	3.78512e-20 1.57768 	-1.28777 	3.76034e-20 1.57795 	-1.28684 	3.67862e-20 1.57826 	-1.28597 	3.52509e-20 1.57858 	-1.2851 	3.37152e-20 1.5789 	-1.28422 	3.21707e-20 1.58412 	-1.27026 	-1.33905e-20 1.58965 	-1.25649 	-5.88725e-20 1.59547 	-1.24293 	-1.04272e-19 1.60218 	-1.23057 	-8.93534e-20 1.60925 	-1.21983 	-2.99917e-20 1.6137 	-1.20431 	-7.53777e-20 1.61846 	-1.18899 	-1.21177e-19 1.62455 	-1.17562 	-1.03619e-19 1.63184 	-1.16296 	-6.09357e-20 1.63987 	-1.15158 	3.29937e-22 1.64215 	-1.14476 	2.8722e-20 1.64476 	-1.13845 	2.82111e-20 1.64761 	-1.13251 	7.10411e-21 1.65053 	-1.12661 	-1.39524e-20 1.65366 	-1.12045 	-3.60048e-20 1.65731 	-1.1136 	-6.80075e-20 1.66105 	-1.10681 	-9.98981e-20 1.66487 	-1.10007 	-1.31676e-19 1.66893 	-1.09377 	-1.31227e-19 1.67318 	-1.08828 	-7.98828e-20 1.67832 	-1.07453 	-1.1192e-19 1.68435 	-1.06128 	-1.36206e-19 1.69168 	-1.04887 	-1.456e-19 1.69987 	-1.03826 	-1.3527e-19 1.70796 	-1.02829 	-1.25281e-19 1.71374 	-1.01479 	-2.75585e-19 1.72001 	-1.00209 	-3.49978e-19 1.72689 	-0.990652 	-2.95908e-19 1.73404 	-0.979372 	-2.42345e-19 1.74234 	-0.969292 	-1.16093e-19 1.74443 	-0.964972 	-8.27055e-20 1.74667 	-0.961102 	-8.49138e-20 1.74897 	-0.957365 	-9.67307e-20 1.7513 	-0.953645 	-1.085e-19 1.75376 	-0.949783 	-1.20724e-19 1.75863 	-0.942408 	-1.24342e-19 1.76363 	-0.935101 	-1.27932e-19 1.76874 	-0.927861 	-1.31495e-19 1.77399 	-0.920911 	-1.29679e-19 1.77935 	-0.915132 	-1.05234e-19 1.7854 	-0.9032 	-1.32845e-19 1.79245 	-0.89184 	-1.44845e-19 1.80039 	-0.880987 	-1.43617e-19 1.80871 	-0.871922 	-1.02952e-19 1.81699 	-0.863391 	-6.0926e-20 1.82361 	-0.8517 	-1.64887e-19 1.83048 	-0.840177 	-2.66702e-19 1.83765 	-0.830484 	-2.25389e-19 1.84586 	-0.821376 	-1.27946e-19 1.85454 	-0.81293 	4.44429e-23 1.86115 	-0.802393 	1.42539e-22 1.86791 	-0.793486 	1.07985e-22 1.87487 	-0.784721 	6.94264e-23 1.88202 	-0.776056 	3.04403e-23 1.89038 	-0.766306 	-1.44263e-23 1.89077 	-0.765873 	7.38815e-22 1.89117 	-0.76544 	1.49154e-21 1.89156 	-0.765008 	2.24376e-21 1.89196 	-0.764576 	2.99546e-21 1.89234 	-0.764229 	4.40175e-22 1.89982 	-0.754772 	-2.54022e-20 1.90761 	-0.745489 	-4.72706e-20 1.91563 	-0.736317 	-6.89606e-20 1.92387 	-0.72727 	-8.98695e-20 1.93177 	-0.720282 	-3.11845e-20 1.93866 	-0.710326 	-2.1114e-20 1.94623 	-0.700807 	-1.38978e-20 1.95461 	-0.691824 	-1.03849e-20 1.96278 	-0.684554 	-1.59706e-20 1.97092 	-0.677686 	-2.24359e-20 1.97824 	-0.66798 	5.39564e-20 1.98577 	-0.658375 	1.30461e-19 1.9932 	-0.650288 	1.32361e-19 2.00151 	-0.643342 	6.57231e-20 2.00986 	-0.636599 	1.62997e-22 2.01757 	-0.627147 	9.6846e-23 2.0251 	-0.618773 	-1.12093e-20 2.03252 	-0.611232 	-3.10549e-20 2.04013 	-0.60377 	-5.08768e-20 2.04859 	-0.59713 	-6.39212e-20 2.05549 	-0.589441 	-1.06403e-19 2.062 	-0.582944 	-1.09952e-19 2.06865 	-0.576504 	-1.1356e-19 2.07544 	-0.570121 	-1.17227e-19 2.08339 	-0.562857 	-1.21505e-19 2.08417 	-0.562178 	-1.22714e-19 2.08495 	-0.561499 	-1.23922e-19 2.08573 	-0.560821 	-1.25129e-19 2.08651 	-0.560144 	-1.26336e-19 2.08722 	-0.559594 	-1.22244e-19 2.09468 	-0.552292 	-9.42932e-20 2.10238 	-0.545134 	-6.50499e-20 2.11025 	-0.538046 	-3.58446e-20 2.11829 	-0.531027 	-6.67731e-21 2.12556 	-0.525538 	1.79205e-22 2.13271 	-0.517773 	6.74869e-20 2.14054 	-0.51079 	8.64762e-20 2.14855 	-0.503898 	1.03614e-19 2.15621 	-0.497823 	8.43128e-20 2.16322 	-0.492905 	1.48847e-20 2.17061 	-0.485383 	-5.50556e-20 2.17822 	-0.478008 	-1.1883e-19 2.18629 	-0.471369 	-1.35002e-19 2.1932 	-0.466504 	-6.72705e-20 2.20018 	-0.461723 	-7.24072e-23 2.20777 	-0.454444 	-3.95075e-23 2.21553 	-0.447222 	-6.78011e-24 2.22264 	-0.441359 	0 2.22948 	-0.436642 	0 2.23639 	-0.431999 	0 2.24414 	-0.424961 	0 2.25182 	-0.418244 	0 2.25832 	-0.413009 	0 2.26501 	-0.408233 	-1.01328e-20 2.27182 	-0.403728 	-2.51551e-20 2.2797 	-0.396929 	-6.21948e-21 2.28662 	-0.391294 	-6.36014e-21 2.29312 	-0.386244 	-1.5826e-20 2.29974 	-0.381257 	-2.67189e-20 2.30641 	-0.37689 	-6.64612e-20 2.31412 	-0.370578 	-2.84907e-20 2.32046 	-0.365677 	-3.02799e-20 2.32693 	-0.36081 	-3.20409e-20 2.33352 	-0.355975 	-3.37739e-20 2.34011 	-0.351457 	-4.64637e-20 2.34635 	-0.346604 	-3.69247e-20 2.35195 	-0.342396 	-3.83728e-20 2.35764 	-0.338212 	-3.97995e-20 2.36343 	-0.334052 	-4.12049e-20 2.37026 	-0.329241 	-4.28152e-20 2.37079 	-0.328878 	-4.26944e-20 2.37133 	-0.328515 	-4.25738e-20 2.37186 	-0.328152 	-4.24534e-20 2.3724 	-0.32779 	-4.23331e-20 2.37286 	-0.327482 	-4.25143e-20 2.37903 	-0.322892 	-4.9249e-20 2.38529 	-0.318356 	-5.37975e-20 2.39166 	-0.313849 	-5.8269e-20 2.39815 	-0.309368 	-6.26641e-20 2.40378 	-0.305642 	-3.89609e-20 2.41011 	-0.300926 	-7.51925e-20 2.41627 	-0.296566 	-8.73252e-20 2.42254 	-0.292232 	-9.93992e-20 2.42892 	-0.287922 	-1.11415e-19 2.43355 	-0.284936 	-7.12958e-20 2.44013 	-0.280152 	-1.18606e-19 2.44617 	-0.275965 	-1.21133e-19 2.45231 	-0.271802 	-1.23612e-19 2.4582 	-0.267898 	-1.18997e-19 2.46217 	-0.265334 	-7.53417e-20 2.46878 	-0.260718 	-1.17871e-19 2.47495 	-0.256512 	-1.28038e-19 2.48095 	-0.252517 	-1.22432e-19 2.48589 	-0.249257 	-9.48012e-20 2.48962 	-0.246798 	-4.31996e-20 2.49621 	-0.242385 	4.3158e-20 2.5026 	-0.238165 	1.03899e-19 2.50844 	-0.234336 	1.09394e-19 2.51242 	-0.231648 	5.03731e-20 2.5159 	-0.229293 	-2.66929e-20 2.52244 	-0.225079 	-1.75896e-20 2.52909 	-0.220884 	-8.49607e-21 2.5346 	-0.2173 	8.66916e-21 2.53778 	-0.215033 	2.59575e-20 2.54102 	-0.212779 	4.32208e-20 2.5475 	-0.20876 	-4.33237e-20 2.55408 	-0.204759 	-1.29881e-19 2.55906 	-0.201538 	-1.41239e-19 2.56198 	-0.199371 	-7.1077e-20 2.56496 	-0.197216 	-1.01409e-21 2.57136 	-0.193389 	-1.00648e-22 2.57786 	-0.189577 	7.91998e-22 2.58237 	-0.186692 	-1.56645e-20 2.58502 	-0.184623 	-4.94113e-20 2.58773 	-0.182565 	-8.31332e-20 2.59405 	-0.178924 	-4.76776e-20 2.60046 	-0.175298 	-1.22377e-20 2.60453 	-0.172722 	-8.54667e-21 2.60692 	-0.17075 	-2.59303e-20 2.60935 	-0.168786 	-4.32982e-20 2.61557 	-0.165328 	-2.59876e-20 2.62187 	-0.161885 	-8.71493e-21 2.62548 	-0.159607 	-9.45923e-21 2.62767 	-0.157711 	-2.60537e-20 2.62984 	-0.15584 	-4.33791e-20 2.63595 	-0.15256 	-1.64887e-19 2.64159 	-0.149506 	-2.61763e-19 2.64504 	-0.147347 	-2.57073e-19 2.64731 	-0.145469 	-1.64748e-19 2.64921 	-0.143688 	-4.33596e-20 2.6552 	-0.140582 	-2.59816e-20 2.66021 	-0.137875 	-8.62112e-21 2.66349 	-0.135831 	8.7089e-21 2.66584 	-0.133985 	2.13097e-20 2.66747 	-0.132292 	3.02517e-20 2.67334 	-0.129354 	9.13202e-20 2.67773 	-0.126957 	1.18683e-19 2.68085 	-0.125025 	1.17009e-19 2.68329 	-0.123223 	9.21119e-20 2.68466 	-0.121617 	3.16754e-20 2.69041 	-0.118842 	2.32334e-20 2.69421 	-0.11672 	1.48076e-20 2.69716 	-0.114897 	6.38684e-21 2.69969 	-0.113148 	0 2.70081 	-0.111625 	0 2.70642 	-0.109009 	0 2.70966 	-0.107131 	1.47216e-20 2.71244 	-0.105412 	3.25519e-20 2.71506 	-0.103725 	5.03671e-20 2.71593 	-0.102284 	6.8109e-20 2.72141 	-0.0998215 	1.90106e-19 2.72412 	-0.0981594 	1.9361e-19 2.72674 	-0.0965413 	1.91083e-19 2.7294 	-0.0949265 	1.88607e-19 2.73007 	-0.0935595 	7.02154e-20 2.73521 	-0.091297 	5.32012e-20 2.73762 	-0.0897736 	3.62402e-20 2.74008 	-0.088253 	1.92709e-20 2.74258 	-0.0867352 	2.29355e-21 2.74326 	-0.0854196 	1.46981e-20 2.74794 	-0.0833738 	-4.34398e-24 2.7502 	-0.0819447 	-2.98899e-23 2.7525 	-0.080518 	-5.54257e-23 2.75484 	-0.0790937 	-8.09513e-23 2.75552 	-0.0778337 	6.38909e-21 2.75978 	-0.075983 	-5.08064e-20 2.76189 	-0.0746445 	-4.95074e-20 2.76403 	-0.0733081 	-4.82359e-20 2.76621 	-0.0719738 	-4.69918e-20 2.7669 	-0.0707725 	-5.64379e-21 2.77077 	-0.0690972 	8.5597e-23 2.77273 	-0.0678458 	6.04906e-23 2.77472 	-0.0665962 	3.53746e-23 2.77675 	-0.0653483 	1.02488e-23 2.77743 	-0.0642077 	0 2.78093 	-0.0626904 	1.11906e-20 2.78275 	-0.0615225 	3.7514e-20 2.78459 	-0.060356 	6.38287e-20 2.78647 	-0.0591911 	9.01346e-20 2.78715 	-0.0581125 	1.07497e-19 2.79031 	-0.0567374 	1.73099e-19 2.79199 	-0.0556493 	1.72021e-19 2.7937 	-0.0545626 	1.7097e-19 2.79544 	-0.0534771 	1.69948e-19 2.79609 	-0.0524608 	1.02486e-19 2.79895 	-0.0512139 	8.75812e-20 2.80049 	-0.0502023 	5.31476e-20 2.80207 	-0.0491917 	1.87085e-20 2.80367 	-0.0481822 	-1.5736e-20 2.8043 	-0.047228 	-4.66903e-20 2.80688 	-0.0460969 	-9.02106e-20 2.80829 	-0.0451581 	-8.90027e-20 2.80974 	-0.0442202 	-8.78287e-20 2.81121 	-0.0432832 	-8.66884e-20 2.81182 	-0.0423905 	-3.70503e-20 2.81413 	-0.0413639 	-4.95356e-20 2.81543 	-0.0404945 	-3.17149e-20 2.81675 	-0.0396259 	-1.39121e-20 2.8181 	-0.038758 	3.87295e-21 2.81867 	-0.0379256 	4.3104e-20 2.82076 	-0.0369935 	4.98626e-20 2.82194 	-0.0361902 	6.73336e-20 2.82314 	-0.0353874 	8.47964e-20 2.82437 	-0.0345853 	1.02251e-19 2.82491 	-0.0338117 	1.22066e-19 2.82678 	-0.0329653 	1.46228e-19 2.82785 	-0.0322246 	1.37006e-19 2.82895 	-0.0314844 	1.27804e-19 2.83006 	-0.0307448 	1.18624e-19 2.83055 	-0.0300281 	8.16889e-20 2.83224 	-0.0292596 	5.8065e-20 2.83321 	-0.0285782 	3.23168e-20 2.8342 	-0.0278973 	6.56669e-21 2.83521 	-0.0272169 	-1.91852e-20 2.83565 	-0.026555 	-4.10466e-20 2.83717 	-0.0258574 	-5.61634e-20 2.83804 	-0.0252322 	-3.83893e-20 2.83894 	-0.0246073 	-2.06412e-20 2.83985 	-0.0239828 	-2.91921e-21 2.84023 	-0.0233736 	4.84826e-20 2.84161 	-0.0227406 	1.02316e-19 2.84239 	-0.0221683 	1.09997e-19 2.84319 	-0.0215964 	1.1772e-19 2.84401 	-0.0210248 	1.25488e-19 2.84433 	-0.0204658 	8.86216e-20 2.84558 	-0.0198918 	7.17996e-20 2.84628 	-0.0193695 	6.32559e-20 2.847 	-0.0188474 	5.47081e-20 2.84773 	-0.0183256 	4.61562e-20 2.84798 	-0.0178144 	3.76069e-20 2.84913 	-0.0172943 	1.44125e-20 2.84975 	-0.0168189 	1.47603e-20 2.85038 	-0.0163438 	1.50856e-20 2.85103 	-0.0158688 	1.53883e-20 2.85122 	-0.0154028 	4.1474