# vtk DataFile Version 2.0
track0
ASCII
DATASET POLYDATA
POINTS 12288 float
-0.0205 0.001 1e-05
-0.02052 0.000999216 1e-05
-0.02054 0.000998592 1e-05
-0.02056 0.000998126 1e-05
-0.02058 0.000997818 1e-05
-0.0206 0.000997665 1e-05
-0.0205 0.00367778 1e-05
-0.02052 0.00367703 1e-05
-0.02054 0.00367643 1e-05
-0.02056 0.00367599 1e-05
-0.02058 0.00367569 1e-05
-0.0206 0.00367554 1e-05
-0.0205 0.00635556 1e-05
-0.02052 0.00635527 1e-05
-0.02054 0.00635505 1e-05
-0.02056 0.00635488 1e-05
-0.02058 0.00635476 1e-05
-0.0206 0.00635471 1e-05
-0.0205 0.00903333 1e-05
-0.02052 0.00903311 1e-05
-0.02054 0.00903293 1e-05
-0.02056 0.0090328 1e-05
-0.02058 0.00903271 1e-05
-0.0206 0.00903266 1e-05
-0.0205 0.0117111 1e-05
-0.02052 0.0117111 1e-05
-0.02054 0.011711 1e-05
-0.02056 0.011711 1e-05
-0.02058 0.011711 1e-05
-0.0206 0.011711 1e-05
-0.0205 0.0143889 1e-05
-0.02052 0.014389 1e-05
-0.02054 0.014389 1e-05
-0.02056 0.0143891 1e-05
-0.02058 0.0143891 1e-05
-0.0206 0.0143891 1e-05
-0.0205 0.0170667 1e-05
-0.02052 0.017067 1e-05
-0.02054 0.0170672 1e-05
-0.02056 0.0170674 1e-05
-0.02058 0.0170675 1e-05
-0.0206 0.0170676 1e-05
-0.0205 0.0197444 1e-05
-0.02052 0.019745 1e-05
-0.02054 0.0197454 1e-05
-0.02056 0.0197457 1e-05
-0.02058 0.0197459 1e-05
-0.0206 0.019746 1e-05
-0.0205 0.0224222 1e-05
-0.02052 0.022423 1e-05
-0.02054 0.0224236 1e-05
-0.02056 0.0224241 1e-05
-0.02058 0.0224244 1e-05
-0.0206 0.0224245 1e-05
-0.0205 0.0251 1e-05
-0.02052 0.0251003 1e-05
-0.02054 0.0251005 1e-05
-0.02056 0.0251007 1e-05
-0.02058 0.0251008 1e-05
-0.0206 0.0251008 1e-05
-0.0205 0.001 1e-05
-0.0203632 0.00100536 1e-05
-0.0202266 0.00101331 1e-05
-0.0200901 0.00102296 1e-05
-0.0200427 0.00102682 1e-05
-0.0198376 0.00104418 1e-05
-0.0196338 0.00107322 1e-05
-0.0194327 0.00111734 1e-05
-0.0192367 0.00118023 1e-05
-0.0190172 0.0012495 1e-05
-0.0189002 0.00128347 1e-05
-0.0187827 0.00131597 1e-05
-0.0186649 0.00134699 1e-05
-0.0185468 0.001377 1e-05
-0.0183806 0.00141936 1e-05
-0.018204 0.00146457 1e-05
-0.0180267 0.00150691 1e-05
-0.0178487 0.00154638 1e-05
-0.0176703 0.00158387 1e-05
-0.0174976 0.00161987 1e-05
-0.0172846 0.00166391 1e-05
-0.0170714 0.00170739 1e-05
-0.0168582 0.00175028 1e-05
-0.0166448 0.00179219 1e-05
-0.0163944 0.00184007 1e-05
-0.0163233 0.00185323 1e-05
-0.0162521 0.00186628 1e-05
-0.0161809 0.0018792 1e-05
-0.0161097 0.001892 1e-05
-0.0160387 0.00190459 1e-05
-0.0157586 0.0019535 1e-05
-0.0154779 0.00199933 1e-05
-0.0151968 0.00204229 1e-05
-0.0149154 0.0020829 1e-05
-0.0146381 0.00212145 1e-05
-0.0143843 0.00215535 1e-05
-0.0141303 0.00218773 1e-05
-0.0138761 0.00221863 1e-05
-0.0136217 0.00224807 1e-05
-0.0132934 0.0022841 1e-05
-0.01328 0.00228548 1e-05
-0.0132665 0.00228685 1e-05
-0.013253 0.00228822 1e-05
-0.0132395 0.00228958 1e-05
-0.0132257 0.00229098 1e-05
-0.0129811 0.00231562 1e-05
-0.0127363 0.00233903 1e-05
-0.0124914 0.00236118 1e-05
-0.0122465 0.00238206 1e-05
-0.0120025 0.00240153 1e-05
-0.0117547 0.00242018 1e-05
-0.0115067 0.0024375 1e-05
-0.0112587 0.0024537 1e-05
-0.0110106 0.00246889 1e-05
-0.0107632 0.00248309 1e-05
-0.0105252 0.00249584 1e-05
-0.0102872 0.0025076 1e-05
-0.0100491 0.00251837 1e-05
-0.00981105 0.00252832 1e-05
-0.00957337 0.00253753 1e-05
-0.00934491 0.00254568 1e-05
-0.00911643 0.00255307 1e-05
-0.00888792 0.00255972 1e-05
-0.00865939 0.00256562 1e-05
-0.00843108 0.0025709 1e-05
-0.00821175 0.00257538 1e-05
-0.00799241 0.00257925 1e-05
-0.00777306 0.00258252 1e-05
-0.0075537 0.0025851 1e-05
-0.00733443 0.00258709 1e-05
-0.00712387 0.00258846 1e-05
-0.0069133 0.00258929 1e-05
-0.00670272 0.00258957 1e-05
-0.00649215 0.00258919 1e-05
-0.0062816 0.0025882 1e-05
-0.00607944 0.00258667 1e-05
-0.0058773 0.0025846 1e-05
-0.00567515 0.00258199 1e-05
-0.00547302 0.00257866 1e-05
-0.00527083 0.00257462 1e-05
-0.00507675 0.00257007 1e-05
-0.00488269 0.00256491 1e-05
-0.00468865 0.00255914 1e-05
-0.00449463 0.00255255 1e-05
-0.00430044 0.00254506 1e-05
-0.00411412 0.00253702 1e-05
-0.00392783 0.0025282 1e-05
-0.00374158 0.00251862 1e-05
-0.00355538 0.00250806 1e-05
-0.00336883 0.00249629 1e-05
-0.00318995 0.00248386 1e-05
-0.00301115 0.00247038 1e-05
-0.00283243 0.00245581 1e-05
-0.00265382 0.00243997 1e-05
-0.00247443 0.00242254 1e-05
-0.0023027 0.00240429 1e-05
-0.00213114 0.00238453 1e-05
-0.00195979 0.00236296 1e-05
-0.00178868 0.00233954 1e-05
-0.00161577 0.002314 1e-05
-0.0015869 0.00230939 1e-05
-0.00155803 0.00230472 1e-05
-0.00152918 0.00229997 1e-05
-0.00150034 0.00229514 1e-05
-0.00147593 0.00229098 1e-05
-0.00133903 0.00226729 1e-05
-0.00120241 0.00224201 1e-05
-0.00106609 0.00221517 1e-05
-0.000930087 0.00218679 1e-05
-0.000791418 0.0021561 1e-05
-0.000633135 0.00211858 1e-05
-0.000475548 0.00207823 1e-05
-0.000318697 0.00203512 1e-05
-0.000162759 0.0019888 1e-05
0 0.00193632 1e-05
5.22922e-05 0.00191803 1e-05
0.000104388 0.0018992 1e-05
0.000156289 0.00187983 1e-05
0.000207995 0.00185995 1e-05
0.000246709 0.00184462 1e-05
0.000303045 0.00182184 1e-05
0.000359103 0.00179838 1e-05
0.000414875 0.00177425 1e-05
0.000470353 0.00174945 1e-05
0.000528387 0.00172272 1e-05
0.000634886 0.00167215 1e-05
0.000740271 0.0016193 1e-05
0.00084448 0.00156416 1e-05
0.000947536 0.0015069 1e-05
0.00106088 0.00144084 1e-05
0.00106264 0.00143976 1e-05
0.0010644 0.00143868 1e-05
0.00106616 0.00143759 1e-05
0.00106792 0.00143651 1e-05
0.00106967 0.00143543 1e-05
0.00117524 0.00137033 1e-05
0.00127933 0.0013029 1e-05
0.00138186 0.00123311 1e-05
0.00148282 0.00116107 1e-05
0.00159752 0.0010758 1e-05
0.00160527 0.00106975 1e-05
0.00161301 0.00106369 1e-05
0.00162074 0.00105762 1e-05
0.00162846 0.00105153 1e-05
0.00163602 0.00104556 1e-05
0.00172904 0.000971818 1e-05
0.00182059 0.000896248 1e-05
0.00191057 0.000818815 1e-05
0.00199912 0.000739754 1e-05
0.00206759 0.000676596 1e-05
0.00208174 0.000663201 1e-05
0.00209584 0.000649758 1e-05
0.0021099 0.000636266 1e-05
0.00212392 0.000622741 1e-05
0.00213833 0.000608778 1e-05
0.0021959 0.000552699 1e-05
0.00225282 0.000495964 1e-05
0.00230907 0.000438564 1e-05
0.00236463 0.00038049 1e-05
0.00241363 0.000328332 1e-05
0.00246757 0.000269946 1e-05
0.00252087 0.000210978 1e-05
0.00257355 0.000151448 1e-05
0.00262569 9.14515e-05 1e-05
0.00268334 2.38891e-05 1e-05
0.00268733 1.91112e-05 1e-05
0.00269131 1.43302e-05 1e-05
0.0026953 9.54586e-06 1e-05
0.00269927 4.75827e-06 1e-05
0.00270322 0 1e-05
0.00276432 -7.37334e-05 1e-05
0.00282471 -0.000148042 1e-05
0.00288439 -0.000222932 1e-05
0.00294331 -0.000298414 1e-05
0.00299713 -0.000368634 1e-05
0.00304422 -0.000431148 1e-05
0.00309088 -0.000493982 1e-05
0.00313712 -0.000557129 1e-05
0.00318299 -0.000620544 1e-05
0.00323259 -0.000689974 1e-05
0.00324526 -0.000707969 1e-05
0.0032579 -0.000725988 1e-05
0.0032705 -0.000744033 1e-05
0.00328306 -0.000762103 1e-05
0.00329542 -0.000779945 1e-05
0.00335873 -0.000871682 1e-05
0.0034213 -0.000963921 1e-05
0.00348315 -0.00105665 1e-05
0.00354429 -0.00114985 1e-05
0.00360163 -0.00123855 1e-05
0.00363852 -0.00129645 1e-05
0.00367519 -0.0013545 1e-05
0.00371163 -0.0014127 1e-05
0.00374788 -0.00147101 1e-05
0.00378611 -0.00153293 1e-05
0.00381265 -0.00157627 1e-05
0.00383906 -0.00161968 1e-05
0.00386533 -0.00166318 1e-05
0.00389147 -0.00170675 1e-05
0.003917 -0.00174958 1e-05
0.00398449 -0.00186344 1e-05
0.00405125 -0.00197773 1e-05
0.00411726 -0.00209245 1e-05
0.00418262 -0.00220754 1e-05
0.00424514 -0.00231878 1e-05
0.0042649 -0.0023543 1e-05
0.0042846 -0.00238986 1e-05
0.00430426 -0.00242544 1e-05
0.00432389 -0.00246104 1e-05
0.00434393 -0.00249748 1e-05
0.00439388 -0.0025885 1e-05
0.00444351 -0.0026797 1e-05
0.00449279 -0.00277109 1e-05
0.00454172 -0.00286266 1e-05
0.00458942 -0.00295252 1e-05
0.00465275 -0.00307261 1e-05
0.00471565 -0.00319293 1e-05
0.0047781 -0.00331349 1e-05
0.00484029 -0.00343417 1e-05
0.00490609 -0.00356258 1e-05
0.0049158 -0.00358165 1e-05
0.0049255 -0.00360072 1e-05
0.00493519 -0.0036198 1e-05
0.00494487 -0.00363889 1e-05
0.00495451 -0.00365792 1e-05
0.00503395 -0.00381493 1e-05
0.00511289 -0.00397219 1e-05
0.00519136 -0.00412969 1e-05
0.00526949 -0.00428735 1e-05
0.00534643 -0.00444288 1e-05
0.00537167 -0.004494 1e-05
0.00539688 -0.00454513 1e-05
0.00542208 -0.00459628 1e-05
0.00544728 -0.00464742 1e-05
0.00547262 -0.0046988 1e-05
0.00553354 -0.00482229 1e-05
0.00559434 -0.00494583 1e-05
0.00565502 -0.00506943 1e-05
0.0057156 -0.00519307 1e-05
0.00577599 -0.00531619 1e-05
0.00582951 -0.00542513 1e-05
0.00588304 -0.00553406 1e-05
0.00593658 -0.00564297 1e-05
0.00599025 -0.00575184 1e-05
0.00604356 -0.0058596 1e-05
0.00608606 -0.0059452 1e-05
0.00612858 -0.00603079 1e-05
0.00617111 -0.00611638 1e-05
0.00621368 -0.00620195 1e-05
0.00625642 -0.00628761 1e-05
0.00632892 -0.00643247 1e-05
0.00640166 -0.0065772 1e-05
0.00647465 -0.00672181 1e-05
0.00654802 -0.00686624 1e-05
0.00661893 -0.00700468 1e-05
0.00665644 -0.00707732 1e-05
0.00669402 -0.00714993 1e-05
0.00673167 -0.00722249 1e-05
0.00676941 -0.00729501 1e-05
0.00680751 -0.00736789 1e-05
0.00688576 -0.00751693 1e-05
0.00696451 -0.00766571 1e-05
0.00704376 -0.00781421 1e-05
0.00712361 -0.0079624 1e-05
0.00719878 -0.00810026 1e-05
0.00725046 -0.00819397 1e-05
0.00730235 -0.00828757 1e-05
0.00735446 -0.00838104 1e-05
0.00740685 -0.00847436 1e-05
0.00746033 -0.00856887 1e-05
0.00752489 -0.00868205 1e-05
0.00758988 -0.00879499 1e-05
0.00765531 -0.00890767 1e-05
0.00772122 -0.00902007 1e-05
0.00778313 -0.00912453 1e-05
0.00785199 -0.00923952 1e-05
0.00792135 -0.00935421 1e-05
0.0079912 -0.0094686 1e-05
0.00806162 -0.00958264 1e-05
0.00813468 -0.00969957 1e-05
0.00818215 -0.00977461 1e-05
0.00822987 -0.00984949 1e-05
0.00827785 -0.0099242 1e-05
0.00832609 -0.00999875 1e-05
0.00837203 -0.0100692 1e-05
0.00847208 -0.0102213 1e-05
0.00857323 -0.0103727 1e-05
0.00867552 -0.0105233 1e-05
0.00877904 -0.0106731 1e-05
0.00888946 -0.01083 1e-05
0.00890467 -0.0108512 1e-05
0.0089199 -0.0108724 1e-05
0.00893517 -0.0108935 1e-05
0.00895045 -0.0109147 1e-05
0.00896551 -0.0109355 1e-05
0.00908513 -0.0111001 1e-05
[...]
POINT_DATA 12288
 FIELD attributes 2
p 1 12288 float
180254 180336 180408 180471 180525 180570
112191 112209 112225 112239 112251 112262
91004.9 91014.5 91023.9 91033 91042 91050.4
83193.3 83199.6 83205.8 83211.9 83218 83223.9
80405.9 80415.1 80424.3 80433.5 80442.7 80451.9
80826.1 80839.6 80853.2 80866.8 80880.4 80893.9
84363.6 84376 84388.3 84400.4 84412.3 84424.1
94196.4 94216.1 94235.1 94253.4 94271 94287.9
120634 120667 120697 120725 120751 120775
218754 218564 218372 218178 217982 217784
180254 176648 172321 167742 166076 162144 158761 156111 147945 137904 132461 127032 123093 122482 121629 115585 109686 105565 104668 103801 102818 101835 100407 98938.4 97222.2 96855.6 96488.5 96120.9 95639.9 95142.3 93222.2 91417.5 89902.7 89113.8 88335.5 87649.5 86984.8 86335.2 85683.7 84843.6 84810.8 84783.5 84757.1 84730.6 84703.5 84167.7 83632.4 83097.5 82563.1 82135.5 81707.7 81296.6 80897.4 80520.9 80153.9 79802.8 79451.4 79126.1 78823.2 78520.6 78229.7 77938.5 77658.3 77394.2 77130.4 76875.4 76620.4 76369 76131.3 75894.1 75664 75433.7 75202.4 74981.1 74761 74546.4 74331.7 74111.5 73900.1 73688.9 73481.3 73273.9 73058.8 72846.5 72634.5 72422.9 72211.7 71994.3 71767.4 71540.9 71309.5 71077.4 70835.6 70580.5 70317.6 70041.8 69737.7 69430 69123.7 68807.7 68745.8 68671.9 68597.1 68522.4 68459.2 68143.1 67830.7 67522.1 67195.9 66808.2 66305.3 65807.9 65167.2 64405.9 63609.1 63267.9 62941.4 62629.7 62319.2 62086.7 61643.6 61199.1 60753.4 60379.6 60011.1 59417.8 58822 58281 57748.5 57158.7 57150.7 57142.6 57135.2 57128.1 57121 56585.8 56043.3 55524.3 55064.4 54528.6 54494.4 54460.2 54428.7 54401.2 54374.2 53953.7 53526.4 53145.7 52811.4 52544.9 52473.8 52402.5 52352.1 52301.8 52249.9 52042.3 51831.7 51618.2 51456.4 51310.8 51142.2 50978.9 50841.2 50701.5 50543.2 50531.8 50520.3 50508.9 50498.4 50488.5 50379.7 50260.8 50139.3 50018.7 49905.4 49858.8 49810.6 49759.2 49706.7 49648.3 49631 49613.6 49596.1 49578 49559.9 49522.5 49478.2 49428.6 49372.5 49317.9 49312.1 49305.3 49294.2 49282.8 49270.3 49256 49241.4 49226.7 49210 49193.1 49186 49177.7 49165.3 49149.4 49133.3 49136.8 49140.3 49142.4 49144.5 49146.6 49142.2 49137.5 49132.3 49125.1 49117.7 49126.5 49134.8 49140.8 49146.5 49152.3 49151.6 49150.8 49150.1 49149.2 49148.3 49157.3 49166.9 49176.8 49186.2 49195.4 49201.9 49208.4 49214.7 49221.1 49227.4 49234.7 49241.8 49249 49256.7 49264.4 49276 49287.7 49299.7 49312 49324.2 49329.1 49334 49339.1 49344.9 49350.7 49364.9 49379.1 49394.3 49410.3 49425.8 49430.2 49434.6 49439.5 49445 49450.6 49464.9 49479.4 49494.9 49511.9 49528 49534.2 49540.5 49548 49556.3 49564.7 49576 49587.4 49599.6 49612.7 49625.2 49634 49642.9 49653.2 49664.3 49675.9 49684 49692.2 49700.7 49709.7 49718.3 49731.6 49745.1 49760.2 49775.9 49792.8 49795.2 49797.7 49800.2 49802.9 49805.5 49821.1 49837.1 49854.6 49873.5 49890.2 49894.3 49898.4 49903.1 49907.8 49912.7 49923.5 49934.4 49945.4 49957.5 49968.7 49980.9 49993.5 50007.6 50021.8 50037.6 50037.6 50037.7 50037.8 50037.9 50038 50051.3 50064.7 50078.3 50093.1 50106.8 50116.9 50127.6 50139.3 50151 50164.2 50164.4 50164.6 50164.8 50165 50165.2 50176.4 50187.6 50198.8 50211 50222.7 50231.5 50240.4 50250.7 50261.3 50271.7 50274.7 50278.2 50281.8 50285.5 50289.4 50294.6 50299.8 50305 50310.5 50316.3 50323.2 50330.5 50338.3 50347.3 50355.9 50361.4 50367.2 50374 50380.9 50388.1 50390.3 50393.2 50396.1 50399.1 50402.2 50404.7 50407.2 50409.7 50412.2 50415.1 50418.8 50423.1 50427.3 50432.2 50437.4 50439.5 50441.6 50444.7 50448.6 50452.5 50453.2 50454.3 50456.1 50457.9 50460.4 50460 50460.3 50460.6 50460.9 50461.2 50461.2 50461.3 50461.3 50461.4 50461.5 50460.7 50459.9 50459 50458.1 50458.1 50455.1 50452.7 50450.5 50448.7 50447.3 50443 50438.6 50435.1 50432.2 50429.4 50423.7 50418 50413 50408.6 50404.4 50397.4 50390.7 50384.4 50378.1 50372.4 50364.2 50356.5 50348.8 50341 50333.6 50327 50320.6 50314.2 50307.8 50300.4 50298 50295.6 50293.2 50290.8 50288.5 50278.2 50268.1 50257.9 50247.6 50237.7 50225.8 50214.4 50202.9 50191.4 50180.4 50167.1 50154.3 50141.6 50129 50116.7 50102.3 50088 50074.2 50060.5 50047 50031.4 50015.9 50000.9 49986.1 49971.4 49954.8 49938.1 49921.9 49906 49890.1 49872.5 49854.9 49837.4 49820.4 49803.4 49784.9 49766.3 49747.8 49729.7 49711.6 49692.1 49672.6 49653.1 49633.9 49614.9 49594.5 49574.1 49553.7 49533.4 49513.5 49492.2 49471 49449.7 49428.4 49407.6 49385.5 49363.4 49341.3 49319.2 49297.4 49274.6 49251.7 49228.8 49206 49183.3 49159.7 49136.1 49112.5 49088.8 49065.3 49041.1 49016.7 48992.4 48968.1 48943.8 48918.9 48893.9 48868.9 48843.8 48818.9 48793.3 48767.7 48742 48716.4 48690.8 48687.1 48683.4 48679.7 48676 48672.2 48649.7 48627.2 48604.7 48582.2 48559.7 48532.9 48506.1 48479.4 48452.6 48425.8 48398.4 48371.1 48343.8 48316.5 48289.2 48261.3 48233.5 48205.7 48177.9 48150 48121.7 48093.5 48065.2 48036.9 48008.5 47979.8 47951.1 47922.4 47893.7 47864.8 47835.7 47806.6 47777.4 47748.3 47719 47689.5 47660 47630.5 47601 47571.3 47541.4 47511.5 47481.7 47451.8 47421.7 47391.5 47361.3 47331.1 47300.9 47270.5 47239.9 47209.4 47178.8 47148.3 47117.6 47086.7 47055.9 47025 46994.2 46963.1 46932 46900.9 46869.8 46838.7 46807.3 46775.9 46744.5 46713.2 46681.8 46650.2 46618.5 46586.9 46555.2 46523.6 46491.7 46459.9 46428 46396.1 46364.2 46332.1 46300 46267.9 46235.8 46203.7 46171.4 46139.1 46106.8 46074.5 46042.2 46009.6 45977.2 45944.6 45912.1 45879.6 45846.9 45814.2 45781.5 45748.8 45716.1 45683.2 45650.3 45617.4 45584.6 45551.7 45518.6 45485.6 45452.5 45419.4 45386.4 45353.1 45319.9 45286.7 45253.5 45220.3 45186.8 45153.5 45120.1 45086.7 45053.4 45019.8 44986.3 44952.8 44919.2 44885.7 44852 44818.4 44784.7 44751 44717.3 44683.5 44649.7 44615.9 44582.1 44548.3 44514.3 44480.4 44446.4 44412.5 44378.5 44344.4 44310.4 44276.3 44242.2 44208.1 44173.9 44139.7 44105.5 44071.3 44037 44002.7 43968.4 43934.1 43899.7 43865.4 43830.9 43796.5 43762 43727.5 43693 43658.5 43623.9 43589.3 43554.7 43520.1 43485.4 43450.8 43416 43381.3 43346.6 43311.8 43277 43242.2 43207.3 43172.5 43137.6 43102.7 43067.7 43032.8 42997.8 42962.8 42927.7 42892.7 42857.6 42822.5 42787.4 42752.2 42717 42681.8 42646.6 42611.3 42576.1 42540.7 42505.4 42470.1 42434.7 42399.3 42363.9 42328.4 42293 42257.5 42222 42186.4 42150.8 42115.3 42079.7 42044 42008.3 41972.6 41936.9 41901.2 41865.4 41829.6 41793.8 41758 41722.1 41686.2 41650.3 41614.3 41578.4 41542.4 41506.3 41470.3 41434.2 41398.1 41362 41325.8 41289.6 41253.4 41217.2 41181 41144.7 41108.3 41072 41035.6 40999.3 40962.8 40926.3 40889.8 40853.4 40816.9 40780.3 40743.6 40707 40670.4 40633.8 40616.2 40598.7 40581.1 40563.6 40546 40526.8 40507.6 40488.4 40469.1 40449.9 40413 40376.1 40339.2 40302.2 40265.3 40228.3 40191.2 40154.1 40117.1 40080 40042.8 40005.6 39968.3 39931.1 39893.9 39856.5 39819.1 39781.7 39744.4 39707 39669.4 39631.9 39594.4 39556.8 39519.3 39481.6 39443.9 39406.2 39368.5 39330.7 39292.9 39255 39217.1 39179.2 39141.3 39103.3 39065.3 39027.2 38989.2 38951.1 38912.9 38874.7 38836.4 38798.2 38759.9 38721.6 38683.2 38644.8 38606.3 38567.9 38529.3 38490.7 38452.1 38413.6 38374.9 38336.2 38297.4 38258.6 38219.8 38181 38142.1 38103.1 38064.1 38025.1 37986.1 37947 37907.8 37868.6 37829.4 37790.2 37750.9 37711.5 37672.1 37632.8 37593.3 37553.8 37514.2 37474.6 37435 37395.4 37355.7 37315.9 37276.1 37236.3 37196.4 37156.5 37116.4 37076.4 37036.4 36996.4 36956.2 36915.9 36875.7 36835.5 36795.2 36754.8 36714.3 36673.9 36633.4 36592.9 36552.3 36511.6 36470.9 36430.2 36389.5 36348.6 36307.7 36266.8 36225.9 36184.9 36143.8 36102.7 36061.5 36020.3 35979.1 35937.8 35896.4 35855 35813.6 35772.2 35730.6 35688.9 35647.3 35605.7 35563.9 35522.1 35480.2 35438.4 35396.5 35354.5 35312.4 35270.3 35228.2 35186 35143.8 35101.4 35059.1 35016.7 34974.2 34931.8 34889.2 34846.5 34803.9 34761.2 34718.4 34675.6 34632.7 34589.7 34546.8 34503.8 34460.6 34417.5 34374.3 34331 34287.8 34244.4 34200.9 34157.4 34113.9 34070.4 34026.7 33983 33939.2 33895.4 33851.6 33807.6 33763.6 33719.6 33675.5 33631.4 33587.1 33542.9 33498.5 33454.2 33409.8 33365.2 33320.6 33276 33231.4 33186.7 33141.8 33097 33052 33007.1 32962.1 32916.9 32871.8 32826.6 32781.3 32736 32690.6 32645.1 32599.6 32554 32508.4 32462.7 32416.9 32371.1 32325.2 32279.3 32233.2 32187.1 32141 32094.8 32048.6 32002.2 31955.8 31909.4 31862.8 31816.3 31769.6 31722.9 31676.1 31629.3 31582.4 31535.4 31488.4 31441.3 31394.1 31346.9 31299.6 31252.2 31204.8 31157.3 31109.8 31062.1 31014.4 30966.6 30918.8 30871 30822.9 30774.9 30726.8 30678.6 30630.5 30582.1 30533.7 30485.3 30436.8 30388.3 30339.6 30290.8 30242.1 30193.2 30144.3 30095.3 30046.2 29997.1 29947.9 29898.7 29849.3 29799.8 29750.4 29700.8 29651.2 29601.5 29551.7 29501.8 29451.9 29402 29351.9 29301.7 29251.5 29201.2 29151 29100.5 29050 28999.4 28948.7 28898.1 28847.2 28796.3 28745.4 28694.4 28643.4 28592.1 28540.8 28489.5 28438.1 28386.7 28335.1 28283.5 28231.7 28180 28128.2 28076.2 28024.1 27972.1 27919.9 27867.7 27815.3 27762.9 27710.4 27657.9 27605.3 27552.5 27499.7 27446.8 27393.8 27340.9 27287.7 27234.4 27181.2 27127.8 27074.4 27020.8 26967.2 26913.5 26859.7 26806 26752 26697.9 26643.8 26589.7 26535.5 26481.1 26426.6 26372.1 26317.6 26263 26208.2 26153.3 26098.4 26043.5 25988.5 25933.3 25878.1 25822.8 25767.6 25712.2 25656.6 25601.1 25545.5 25489.9 25434.3 25378.4 25322.5 25266.7 25210.9 25155 25098.9 25042.9 24987 24931 24875.1 24819 24763 24707.2 24651.3 24595.5 24539.5 24484.1 24428.8 24373.5 24318.6 24263.7 24208.5 24153.3 24098.2 24042.7 23988.1 23939.2 23890.3 23841.5 23797 23746.3 23680.8 23615.3 23549.7 23476.6 23433 23406.8 23380.7 23354.9 23342.2 23332.8 23323.4 23314 23304.6 23300.8 23294.9 23283.1 23271.3 23259.6 23245.3 23223.3 23201.1 23178.8 23156.3 23121.8 23047.6 22978.5 22909.6 22840.7 22782.5 22730.4 22673.8 22617.2 22560.6 22498.4 22430.5 22362.2 22293.9 22225.7 22157 22085.3 22011.9 21938.5 21865 21789.7 21711.2 21631.2 21551.2 21471.2 21389.8 21305.1 21218.8 21132.5 21046.1 20958.1 20866.8 20773.6 20680.4 20587.2 20492.3 20393.9 20293.4 20192.8 20092.3 19989.8 19883.6 19775 19666.5 19557.9 19447.3 19332.6 19215.1 19097.6 18980.1 18860.2 18735.8 18608.6 18481.3 18354.1 18224.4 18089.8 17951.3 17812.8 17674.3 17532.3 17385 17234.7 17084.5 16934.2 16781.5 16623 16457.6 16292.3 16127 15955.4 15777.4 15598.7 15420 15241.4 15062.6 14877 14676.1 14475.3 14274.4 14059.2 13835.8 13622.7 13409.6 13196.5 12994.1 12783.9 12533.5 12283.2 12032.8 11743.7 11443.4 11190.2 10937.1 10683.9 10477.8 10264.1 9940.58 9616.33 9290.14 8857.09 8407.74 8103.31 7804.78 7515.38 7369.1 7216.86 6802.2 6357.04 5854.58 5104.37 4325.24 3814.4 3431.87 3261.78 3326.4 3391.57 3335.93 2760.35 1391.18 0