# vtk DataFile Version 2.0
track0
ASCII
DATASET POLYDATA
POINTS 12288 float
-0.0205 0.001 1e-05
-0.02052 0.000999216 1e-05
-0.02054 0.000998592 1e-05
-0.02056 0.000998126 1e-05
-0.02058 0.000997818 1e-05
-0.0206 0.000997665 1e-05
-0.0205 0.00367778 1e-05
-0.02052 0.00367703 1e-05
-0.02054 0.00367643 1e-05
-0.02056 0.00367599 1e-05
-0.02058 0.00367569 1e-05
-0.0206 0.00367554 1e-05
-0.0205 0.00635556 1e-05
-0.02052 0.00635527 1e-05
-0.02054 0.00635505 1e-05
-0.02056 0.00635488 1e-05
-0.02058 0.00635476 1e-05
-0.0206 0.00635471 1e-05
-0.0205 0.00903333 1e-05
-0.02052 0.00903311 1e-05
-0.02054 0.00903293 1e-05
-0.02056 0.0090328 1e-05
-0.02058 0.00903271 1e-05
-0.0206 0.00903266 1e-05
-0.0205 0.0117111 1e-05
-0.02052 0.0117111 1e-05
-0.02054 0.011711 1e-05
-0.02056 0.011711 1e-05
-0.02058 0.011711 1e-05
-0.0206 0.011711 1e-05
-0.0205 0.0143889 1e-05
-0.02052 0.014389 1e-05
-0.02054 0.014389 1e-05
-0.02056 0.0143891 1e-05
-0.02058 0.0143891 1e-05
-0.0206 0.0143891 1e-05
-0.0205 0.0170667 1e-05
-0.02052 0.017067 1e-05
-0.02054 0.0170672 1e-05
-0.02056 0.0170674 1e-05
-0.02058 0.0170675 1e-05
-0.0206 0.0170676 1e-05
-0.0205 0.0197444 1e-05
-0.02052 0.019745 1e-05
-0.02054 0.0197454 1e-05
-0.02056 0.0197457 1e-05
-0.02058 0.0197459 1e-05
-0.0206 0.019746 1e-05
-0.0205 0.0224222 1e-05
-0.02052 0.022423 1e-05
-0.02054 0.0224236 1e-05
-0.02056 0.0224241 1e-05
-0.02058 0.0224244 1e-05
-0.0206 0.0224245 1e-05
-0.0205 0.0251 1e-05
-0.02052 0.0251003 1e-05
-0.02054 0.0251005 1e-05
-0.02056 0.0251007 1e-05
-0.02058 0.0251008 1e-05
-0.0206 0.0251008 1e-05
-0.0205 0.001 1e-05
-0.0203632 0.00100536 1e-05
-0.0202266 0.00101331 1e-05
-0.0200901 0.00102296 1e-05
-0.0200427 0.00102682 1e-05
-0.0198376 0.00104418 1e-05
-0.0196338 0.00107322 1e-05
-0.0194327 0.00111734 1e-05
-0.0192367 0.00118023 1e-05
-0.0190172 0.0012495 1e-05
-0.0189002 0.00128347 1e-05
-0.0187827 0.00131597 1e-05
-0.0186649 0.00134699 1e-05
-0.0185468 0.001377 1e-05
-0.0183806 0.00141936 1e-05
-0.018204 0.00146457 1e-05
-0.0180267 0.00150691 1e-05
-0.0178487 0.00154638 1e-05
-0.0176703 0.00158387 1e-05
-0.0174976 0.00161987 1e-05
-0.0172846 0.00166391 1e-05
-0.0170714 0.00170739 1e-05
-0.0168582 0.00175028 1e-05
-0.0166448 0.00179219 1e-05
-0.0163944 0.00184007 1e-05
-0.0163233 0.00185323 1e-05
-0.0162521 0.00186628 1e-05
-0.0161809 0.0018792 1e-05
-0.0161097 0.001892 1e-05
-0.0160387 0.00190459 1e-05
-0.0157586 0.0019535 1e-05
-0.0154779 0.00199933 1e-05
-0.0151968 0.00204229 1e-05
-0.0149154 0.0020829 1e-05
-0.0146381 0.00212145 1e-05
-0.0143843 0.00215535 1e-05
-0.0141303 0.00218773 1e-05
-0.0138761 0.00221863 1e-05
-0.0136217 0.00224807 1e-05
-0.0132934 0.0022841 1e-05
-0.01328 0.00228548 1e-05
-0.0132665 0.00228685 1e-05
-0.013253 0.00228822 1e-05
-0.0132395 0.00228958 1e-05
-0.0132257 0.00229098 1e-05
-0.0129811 0.00231562 1e-05
-0.0127363 0.00233903 1e-05
-0.0124914 0.00236118 1e-05
-0.0122465 0.00238206 1e-05
-0.0120025 0.00240153 1e-05
-0.0117547 0.00242018 1e-05
-0.0115067 0.0024375 1e-05
-0.0112587 0.0024537 1e-05
-0.0110106 0.00246889 1e-05
-0.0107632 0.00248309 1e-05
-0.0105252 0.00249584 1e-05
-0.0102872 0.0025076 1e-05
-0.0100491 0.00251837 1e-05
-0.00981105 0.00252832 1e-05
-0.00957337 0.00253753 1e-05
-0.00934491 0.00254568 1e-05
-0.00911643 0.00255307 1e-05
-0.00888792 0.00255972 1e-05
-0.00865939 0.00256562 1e-05
-0.00843108 0.0025709 1e-05
-0.00821175 0.00257538 1e-05
-0.00799241 0.00257925 1e-05
-0.00777306 0.00258252 1e-05
-0.0075537 0.0025851 1e-05
-0.00733443 0.00258709 1e-05
-0.00712387 0.00258846 1e-05
-0.0069133 0.00258929 1e-05
-0.00670272 0.00258957 1e-05
-0.00649215 0.00258919 1e-05
-0.0062816 0.0025882 1e-05
-0.00607944 0.00258667 1e-05
-0.0058773 0.0025846 1e-05
-0.00567515 0.00258199 1e-05
-0.00547302 0.00257866 1e-05
-0.00527083 0.00257462 1e-05
-0.00507675 0.00257007 1e-05
-0.00488269 0.00256491 1e-05
-0.00468865 0.00255914 1e-05
-0.00449463 0.00255255 1e-05
-0.00430044 0.00254506 1e-05
-0.00411412 0.00253702 1e-05
-0.00392783 0.0025282 1e-05
-0.00374158 0.00251862 1e-05
-0.00355538 0.00250806 1e-05
-0.00336883 0.00249629 1e-05
-0.00318995 0.00248386 1e-05
-0.00301115 0.00247038 1e-05
-0.00283243 0.00245581 1e-05
-0.00265382 0.00243997 1e-05
-0.00247443 0.00242254 1e-05
-0.0023027 0.00240429 1e-05
-0.00213114 0.00238453 1e-05
-0.00195979 0.00236296 1e-05
-0.00178868 0.00233954 1e-05
-0.00161577 0.002314 1e-05
-0.0015869 0.00230939 1e-05
-0.00155803 0.00230472 1e-05
-0.00152918 0.00229997 1e-05
-0.00150034 0.00229514 1e-05
-0.00147593 0.00229098 1e-05
-0.00133903 0.00226729 1e-05
-0.00120241 0.00224201 1e-05
-0.00106609 0.00221517 1e-05
-0.000930087 0.00218679 1e-05
-0.000791418 0.0021561 1e-05
-0.000633135 0.00211858 1e-05
-0.000475548 0.00207823 1e-05
-0.000318697 0.00203512 1e-05
-0.000162759 0.0019888 1e-05
0 0.00193632 1e-05
5.22922e-05 0.00191803 1e-05
0.000104388 0.0018992 1e-05
0.000156289 0.00187983 1e-05
0.000207995 0.00185995 1e-05
0.000246709 0.00184462 1e-05
0.000303045 0.00182184 1e-05
0.000359103 0.00179838 1e-05
0.000414875 0.00177425 1e-05
0.000470353 0.00174945 1e-05
0.000528387 0.00172272 1e-05
0.000634886 0.00167215 1e-05
0.000740271 0.0016193 1e-05
0.00084448 0.00156416 1e-05
0.000947536 0.0015069 1e-05
0.00106088 0.00144084 1e-05
0.00106264 0.00143976 1e-05
0.0010644 0.00143868 1e-05
0.00106616 0.00143759 1e-05
0.00106792 0.00143651 1e-05
0.00106967 0.00143543 1e-05
0.00117524 0.00137033 1e-05
0.00127933 0.0013029 1e-05
0.00138186 0.00123311 1e-05
0.00148282 0.00116107 1e-05
0.00159752 0.0010758 1e-05
0.00160527 0.00106975 1e-05
0.00161301 0.00106369 1e-05
0.00162074 0.00105762 1e-05
0.00162846 0.00105153 1e-05
0.00163602 0.00104556 1e-05
0.00172904 0.000971818 1e-05
0.00182059 0.000896248 1e-05
0.00191057 0.000818815 1e-05
0.00199912 0.000739754 1e-05
0.00206759 0.000676596 1e-05
0.00208174 0.000663201 1e-05
0.00209584 0.000649758 1e-05
0.0021099 0.000636266 1e-05
0.00212392 0.000622741 1e-05
0.00213833 0.000608778 1e-05
0.0021959 0.000552699 1e-05
0.00225282 0.000495964 1e-05
0.00230907 0.000438564 1e-05
0.00236463 0.00038049 1e-05
0.00241363 0.000328332 1e-05
0.00246757 0.000269946 1e-05
0.00252087 0.000210978 1e-05
0.00257355 0.000151448 1e-05
0.00262569 9.14515e-05 1e-05
0.00268334 2.38891e-05 1e-05
0.00268733 1.91112e-05 1e-05
0.00269131 1.43302e-05 1e-05
0.0026953 9.54586e-06 1e-05
0.00269927 4.75827e-06 1e-05
0.00270322 0 1e-05
0.00276432 -7.37334e-05 1e-05
0.00282471 -0.000148042 1e-05
0.00288439 -0.000222932 1e-05
0.00294331 -0.000298414 1e-05
0.00299713 -0.000368634 1e-05
0.00304422 -0.000431148 1e-05
0.00309088 -0.000493982 1e-05
0.00313712 -0.000557129 1e-05
0.00318299 -0.000620544 1e-05
0.00323259 -0.000689974 1e-05
0.00324526 -0.000707969 1e-05
0.0032579 -0.000725988 1e-05
0.0032705 -0.000744033 1e-05
0.00328306 -0.000762103 1e-05
0.00329542 -0.000779945 1e-05
0.00335873 -0.000871682 1e-05
0.0034213 -0.000963921 1e-05
0.00348315 -0.00105665 1e-05
0.00354429 -0.00114985 1e-05
0.00360163 -0.00123855 1e-05
0.00363852 -0.00129645 1e-05
0.00367519 -0.0013545 1e-05
0.00371163 -0.0014127 1e-05
0.00374788 -0.00147101 1e-05
0.00378611 -0.00153293 1e-05
0.00381265 -0.00157627 1e-05
0.00383906 -0.00161968 1e-05
0.00386533 -0.00166318 1e-05
0.00389147 -0.00170675 1e-05
0.003917 -0.00174958 1e-05
0.00398449 -0.00186344 1e-05
0.00405125 -0.00197773 1e-05
0.00411726 -0.00209245 1e-05
0.00418262 -0.00220754 1e-05
0.00424514 -0.00231878 1e-05
0.0042649 -0.0023543 1e-05
0.0042846 -0.00238986 1e-05
0.00430426 -0.00242544 1e-05
0.00432389 -0.00246104 1e-05
0.00434393 -0.00249748 1e-05
0.00439388 -0.0025885 1e-05
0.00444351 -0.0026797 1e-05
0.00449279 -0.00277109 1e-05
0.00454172 -0.00286266 1e-05
0.00458942 -0.00295252 1e-05
0.00465275 -0.00307261 1e-05
0.00471565 -0.00319293 1e-05
0.0047781 -0.00331349 1e-05
0.00484029 -0.00343417 1e-05
0.00490609 -0.00356258 1e-05
0.0049158 -0.00358165 1e-05
0.0049255 -0.00360072 1e-05
0.00493519 -0.0036198 1e-05
0.00494487 -0.00363889 1e-05
0.00495451 -0.00365792 1e-05
0.00503395 -0.00381493 1e-05
0.00511289 -0.00397219 1e-05
0.00519136 -0.00412969 1e-05
0.00526949 -0.00428735 1e-05
0.00534643 -0.00444288 1e-05
0.00537167 -0.004494 1e-05
0.00539688 -0.00454513 1e-05
0.00542208 -0.00459628 1e-05
0.00544728 -0.00464742 1e-05
0.00547262 -0.0046988 1e-05
0.00553354 -0.00482229 1e-05
0.00559434 -0.00494583 1e-05
0.00565502 -0.00506943 1e-05
0.0057156 -0.00519307 1e-05
0.00577599 -0.00531619 1e-05
0.00582951 -0.00542513 1e-05
0.00588304 -0.00553406 1e-05
0.00593658 -0.00564297 1e-05
0.00599025 -0.00575184 1e-05
0.00604356 -0.0058596 1e-05
0.00608606 -0.0059452 1e-05
0.00612858 -0.00603079 1e-05
0.00617111 -0.00611638 1e-05
0.00621368 -0.00620195 1e-05
0.00625642 -0.00628761 1e-05
0.00632892 -0.00643247 1e-05
0.00640166 -0.0065772 1e-05
0.00647465 -0.00672181 1e-05
0.00654802 -0.00686624 1e-05
0.00661893 -0.00700468 1e-05
0.00665644 -0.00707732 1e-05
0.00669402 -0.00714993 1e-05
0.00673167 -0.00722249 1e-05
0.00676941 -0.00729501 1e-05
0.00680751 -0.00736789 1e-05
0.00688576 -0.00751693 1e-05
0.00696451 -0.00766571 1e-05
0.00704376 -0.00781421 1e-05
0.00712361 -0.0079624 1e-05
0.00719878 -0.00810026 1e-05
0.00725046 -0.00819397 1e-05
0.00730235 -0.00828757 1e-05
0.00735446 -0.00838104 1e-05
0.00740685 -0.00847436 1e-05
0.00746033 -0.00856887 1e-05
0.00752489 -0.00868205 1e-05
0.00758988 -0.00879499 1e-05
0.00765531 -0.00890767 1e-05
0.00772122 -0.00902007 1e-05
0.00778313 -0.00912453 1e-05
0.00785199 -0.00923952 1e-05
0.00792135 -0.00935421 1e-05
0.0079912 -0.0094686 1e-05
0.00806162 -0.00958264 1e-05
0.00813468 -0.00969957 1e-05
0.00818215 -0.00977461 1e-05
0.00822987 -0.00984949 1e-05
0.00827785 -0.0099242 1e-05
0.00832609 -0.00999875 1e-05
0.00837203 -0.0100692 1e-05
0.00847208 -0.0102213 1e-05
0.00857323 -0.0103727 1e-05
0.00867552 -0.0105233 1e-05
0.00877904 -0.0106731 1e-05
0.00888946 -0.01083 1e-05
0.00890467 -0.0108512 1e-05
0.0089199 -0.0108724 1e-05
0.00893517 -0.0108935 1e-05
0.00895045 -0.0109147 1e-05
0.00896551 -0.0109355 1e-05
0.00908513 -0.0111001 1e-05
[...]
POINT_DATA 12288
 FIELD attributes 1
U 3 12288 float
9.7234 	0.381306 	0 9.77872 	0.305045 	0 9.83406 	0.228762 	0 9.8894 	0.152463 	0 9.94476 	0.0761521 	0 10 	0 	0
10.0671 	0.375454 	0 10.0537 	0.300363 	0 10.0403 	0.225254 	0 10.0268 	0.15013 	0 10.0134 	0.074995 	0 10 	0 	0
10.0363 	0.141618 	0 10.0291 	0.113341 	0 10.0218 	0.0851165 	0 10.0145 	0.0569444 	0 10.0071 	0.0288251 	0 10 	0 	0
10.0137 	0.111604 	0 10.0109 	0.0892835 	0 10.0082 	0.0669621 	0 10.0055 	0.0446404 	0 10.0027 	0.0223183 	0 10 	0 	0
10.0097 	0.0197904 	0 10.0078 	0.0158323 	0 10.0058 	0.0118742 	0 10.0039 	0.00791613 	0 10.0019 	0.00395806 	0 10 	0 	0
10.0102 	-0.0371659 	0 10.0082 	-0.0297327 	0 10.0061 	-0.0222995 	0 10.0041 	-0.0148663 	0 10.002 	-0.00743308 	0 10 	0 	0
10.0174 	-0.148963 	0 10.0139 	-0.11917 	0 10.0105 	-0.0893766 	0 10.007 	-0.0595819 	0 10.0035 	-0.0297866 	0 10 	0 	0
10.0362 	-0.265919 	0 10.029 	-0.212735 	0 10.0217 	-0.159545 	0 10.0145 	-0.106349 	0 10.0072 	-0.0531496 	0 10 	0 	0
10.0563 	-0.387193 	0 10.045 	-0.309755 	0 10.0338 	-0.232295 	0 10.0225 	-0.15482 	0 10.0112 	-0.0773334 	0 10 	0 	0
8.30133 	-0.114496 	0 8.4287 	-0.0915965 	0 8.55659 	-0.0686965 	0 8.68498 	-0.045796 	0 8.81385 	-0.022895 	0 8.94315 	0 	0
9.7234 	0.381306 	0 9.54152 	0.555233 	0 9.39673 	0.663642 	0 9.26207 	0.754262 	0 9.21834 	0.780375 	0 8.9535 	1.27611 	0 8.70586 	1.9103 	0 8.48183 	2.72174 	0 8.46734 	2.67115 	0 8.47264 	2.45978 	0 8.50131 	2.35304 	0 8.52513 	2.24419 	0 8.51236 	2.16299 	0 8.42501 	2.14726 	0 8.30224 	2.12547 	0 8.30129 	1.98199 	0 8.28727 	1.83789 	0 8.21196 	1.72561 	0 8.03513 	1.67502 	0 7.86318 	1.62573 	0 7.6833 	1.56758 	0 7.50179 	1.50875 	0 7.42787 	1.45844 	0 7.36133 	1.4078 	0 7.27843 	1.34687 	0 7.22228 	1.32394 	0 7.16594 	1.30091 	0 7.10939 	1.27777 	0 7.07908 	1.25467 	0 7.05269 	1.23151 	0 6.97361 	1.13879 	0 6.88798 	1.05276 	0 6.79828 	0.980946 	0 6.71116 	0.932861 	0 6.62185 	0.884598 	0 6.54994 	0.834938 	0 6.49122 	0.789001 	0 6.44127 	0.745559 	0 6.38744 	0.701092 	0 6.31493 	0.644111 	0 6.31288 	0.642151 	0 6.31139 	0.640447 	0 6.30998 	0.638781 	0 6.30856 	0.637113 	0 6.3071 	0.635402 	0 6.26933 	0.599622 	0 6.22912 	0.563513 	0 6.18643 	0.527069 	0 6.14122 	0.490285 	0 6.1058 	0.4593 	0 6.07205 	0.424289 	0 6.04124 	0.394447 	0 6.01218 	0.36827 	0 5.98928 	0.343707 	0 5.96753 	0.319692 	0 5.9464 	0.29387 	0 5.92326 	0.267838 	0 5.90651 	0.246968 	0 5.89582 	0.228418 	0 5.88369 	0.209804 	0 5.87051 	0.190088 	0 5.85582 	0.170272 	0 5.84644 	0.150965 	0 5.84282 	0.135107 	0 5.83797 	0.11922 	0 5.83109 	0.102987 	0 5.823 	0.0867098 	0 5.8202 	0.0683697 	0 5.82215 	0.0530637 	0 5.82304 	0.0378067 	0 5.8214 	0.0229709 	0 5.81926 	0.00781901 	0 5.82213 	-0.0105939 	0 5.82882 	-0.0274783 	0 5.8348 	-0.0441912 	0 5.83815 	-0.0597183 	0 5.8407 	-0.0754366 	0 5.84883 	-0.0963558 	0 5.86103 	-0.117029 	0 5.87186 	-0.137638 	0 5.88048 	-0.156361 	0 5.88785 	-0.175023 	0 5.90107 	-0.200422 	0 5.91852 	-0.22834 	0 5.93416 	-0.256131 	0 5.94857 	-0.281575 	0 5.96138 	-0.306885 	0 5.97909 	-0.338781 	0 6.00151 	-0.378688 	0 6.02149 	-0.418372 	0 6.04195 	-0.455843 	0 6.06114 	-0.494098 	0 6.08471 	-0.53954 	0 6.10846 	-0.593355 	0 6.13072 	-0.651648 	0 6.15564 	-0.708914 	0 6.18378 	-0.778522 	0 6.20931 	-0.849812 	0 6.23109 	-0.920609 	0 6.24925 	-0.996267 	0 6.25325 	-1.01141 	0 6.25766 	-1.03027 	0 6.26195 	-1.04939 	0 6.26607 	-1.06848 	0 6.26942 	-1.08462 	0 6.2835 	-1.16273 	0 6.29407 	-1.23945 	0 6.30118 	-1.31481 	0 6.30717 	-1.39598 	0 6.31578 	-1.49707 	0 6.33129 	-1.62101 	0 6.34062 	-1.74294 	0 6.32678 	-1.87907 	1.63842e-20 6.28567 	-2.02699 	4.11004e-20 6.23503 	-2.18003 	6.91969e-20 6.22279 	-2.24992 	-1.46484e-20 6.20479 	-2.31538 	-3.86448e-20 6.18098 	-2.37634 	-1.54956e-21 6.15609 	-2.4368 	3.68119e-20 6.13656 	-2.48188 	6.6593e-20 6.11335 	-2.55836 	1.52496e-19 6.08887 	-2.63447 	2.41237e-19 6.06313 	-2.71021 	3.32802e-19 6.02489 	-2.7751 	2.28895e-19 5.97952 	-2.8393 	5.33099e-20 5.89964 	-2.95884 	3.94541e-20 5.81509 	-3.07662 	2.68635e-20 5.71963 	-3.17795 	7.53991e-22 5.61865 	-3.27484 	-2.68309e-20 5.50077 	-3.37929 	-5.41425e-20 5.49889 	-3.3809 	-5.68717e-20 5.497 	-3.38252 	-5.96004e-20 5.49514 	-3.38385 	-5.89031e-20 5.49328 	-3.38509 	-5.7273e-20 5.49144 	-3.38633 	-5.5651e-20 5.37258 	-3.48032 	-3.87311e-20 5.2489 	-3.57316 	-2.07329e-20 5.1231 	-3.65533 	-8.18675e-21 4.99857 	-3.71609 	-8.61736e-21 4.85044 	-3.78459 	-8.19019e-21 4.83985 	-3.78966 	-5.02609e-21 4.82924 	-3.79473 	-1.86053e-21 4.81905 	-3.79895 	1.77722e-21 4.80948 	-3.80197 	6.0871e-21 4.80007 	-3.80492 	1.03105e-20 4.67435 	-3.85859 	6.16426e-21 4.54469 	-3.91114 	9.17403e-22 4.42005 	-3.9464 	1.73776e-21 4.30095 	-3.96688 	4.1406e-21 4.20501 	-3.98179 	6.23774e-21 4.18304 	-3.98784 	1.01564e-20 4.16096 	-3.99385 	1.40963e-20 4.14264 	-3.99565 	6.83472e-21 4.12431 	-3.99735 	-6.06849e-22 4.10536 	-3.99907 	-8.26096e-21 4.02349 	-4.01008 	-6.75269e-20 3.94018 	-4.02043 	-1.26295e-19 3.8554 	-4.03011 	-1.84544e-19 3.78298 	-4.02711 	-1.11471e-19 3.71763 	-4.02386 	-4.48297e-20 3.64202 	-4.02897 	2.68617e-21 3.56677 	-4.03088 	3.86473e-20 3.49624 	-4.02268 	3.15098e-20 3.42468 	-4.014 	2.46613e-20 3.34354 	-4.00377 	1.73431e-20 3.33759 	-4.00329 	1.84814e-20 3.33164 	-4.00281 	1.96202e-20 3.32568 	-4.00232 	2.07595e-20 3.32002 	-4.00134 	2.1729e-20 3.31453 	-4.00013 	2.26096e-20 3.24508 	-3.99267 	1.45108e-20 3.17292 	-3.98203 	7.62785e-21 3.0995 	-3.97063 	7.40099e-22 3.02556 	-3.94747 	6.30561e-21 2.95626 	-3.9244 	1.26214e-20 2.90856 	-3.91648 	3.80336e-20 2.86053 	-3.90645 	5.2526e-20 2.81311 	-3.88899 	2.25849e-20 2.76515 	-3.87122 	-7.2656e-21 2.71226 	-3.8515 	-3.97047e-20 2.69796 	-3.84729 	-4.44288e-20 2.68361 	-3.84304 	-4.91542e-20 2.6692 	-3.83877 	-5.38807e-20 2.65487 	-3.83292 	-5.86656e-20 2.64075 	-3.82653 	-6.34072e-20 2.58454 	-3.80969 	-1.08556e-19 2.52698 	-3.78862 	-1.42819e-19 2.46865 	-3.76344 	-1.55803e-19 2.41107 	-3.72971 	-9.5559e-20 2.35578 	-3.69719 	-3.82864e-20 2.32785 	-3.6857 	1.69204e-20 2.29994 	-3.67327 	6.30442e-20 2.27339 	-3.65642 	5.67211e-20 2.24663 	-3.63942 	5.05241e-20 2.21804 	-3.62124 	4.40922e-20 2.19579 	-3.60959 	6.85224e-20 2.17339 	-3.59783 	9.28994e-20 2.15086 	-3.58595 	1.17222e-19 2.129 	-3.57123 	1.04492e-19 2.10763 	-3.556 	8.27222e-20 2.0628 	-3.53119 	4.89138e-20 2.01726 	-3.50585 	1.50598e-20 1.97351 	-3.47508 	-8.44006e-21 1.93208 	-3.43778 	-2.21889e-20 1.89169 	-3.40141 	-3.54266e-20 1.88133 	-3.39412 	-3.45348e-20 1.87103 	-3.38668 	-3.41869e-20 1.86198 	-3.3776 	-4.17847e-20 1.8529 	-3.3685 	-4.93761e-20 1.84358 	-3.35916 	-5.71347e-20 1.81527 	-3.3363 	-1.17637e-19 1.78671 	-3.31319 	-1.77801e-19 1.75789 	-3.28983 	-2.37615e-19 1.73158 	-3.26222 	-1.70882e-19 1.70589 	-3.2346 	-9.2818e-20 1.67774 	-3.20933 	-6.05177e-20 1.64931 	-3.18375 	-2.81759e-20 1.62503 	-3.15367 	1.44751e-21 1.60056 	-3.12342 	3.1111e-20 1.57433 	-3.0911 	6.26782e-20 1.56947 	-3.0863 	6.76292e-20 1.56461 	-3.0815 	7.25816e-20 1.55973 	-3.07669 	7.75356e-20 1.55545 	-3.07121 	7.5028e-20 1.55121 	-3.06571 	7.20585e-20 1.52217 	-3.03261 	4.76936e-20 1.49406 	-2.99865 	2.35465e-20 1.46834 	-2.96278 	2.54061e-20 1.44633 	-2.92392 	8.51838e-20 1.42455 	-2.88553 	1.44134e-19 1.41849 	-2.87616 	1.72347e-19 1.41241 	-2.86678 	2.00562e-19 1.40783 	-2.85669 	1.86805e-19 1.40354 	-2.84647 	1.64998e-19 1.39923 	-2.8362 	1.43078e-19 1.38303 	-2.81021 	2.52973e-19 1.36677 	-2.78415 	3.62632e-19 1.35108 	-2.7577 	4.27626e-19 1.3389 	-2.72927 	2.38968e-19 1.32681 	-2.701 	5.11085e-20 1.31775 	-2.68149 	-4.31959e-20 1.3087 	-2.66199 	-1.37496e-19 1.30218 	-2.64166 	-1.20455e-19 1.29669 	-2.62107 	-6.07887e-20 1.29133 	-2.60074 	-1.50809e-21 1.2833 	-2.58354 	-2.43494e-21 1.27527 	-2.56634 	-3.36161e-21 1.26801 	-2.54885 	-6.29781e-22 1.26273 	-2.53061 	1.14992e-20 1.25748 	-2.51239 	2.36596e-20 1.25011 	-2.48739 	1.08289e-19 1.24284 	-2.4625 	1.9289e-19 1.23811 	-2.43721 	1.94425e-19 1.23533 	-2.41173 	1.35453e-19 1.23287 	-2.38746 	7.84485e-20 1.22855 	-2.37367 	6.8564e-20 1.22426 	-2.3599 	5.86611e-20 1.22096 	-2.34592 	5.39175e-20 1.21886 	-2.33169 	5.54181e-20 1.2168 	-2.31742 	5.69062e-20 1.21365 	-2.29297 	3.64344e-20 1.2107 	-2.26872 	1.59238e-20 1.20982 	-2.24522 	4.19725e-21 1.21202 	-2.2228 	5.70841e-21 1.21436 	-2.20216 	7.13771e-21 1.21163 	-2.18532 	-4.66052e-20 1.20896 	-2.16857 	-1.00569e-19 1.20841 	-2.15243 	-8.8291e-20 1.20902 	-2.13667 	-4.15926e-20 1.20975 	-2.12079 	5.70183e-21 1.20986 	-2.10233 	6.63236e-20 1.21012 	-2.08402 	1.2681e-19 1.21161 	-2.06639 	1.43985e-19 1.21501 	-2.04982 	9.0885e-20 1.21836 	-2.03455 	4.09283e-20 1.21778 	-2.01398 	3.83848e-20 1.21736 	-1.99356 	3.57529e-20 1.21912 	-1.9743 	3.37258e-20 1.22204 	-1.9557 	3.19292e-20 1.22525 	-1.93676 	2.99716e-20 1.22719 	-1.92549 	1.86614e-20 1.22922 	-1.91429 	7.32854e-21 1.23165 	-1.90333 	4.99774e-21 1.23504 	-1.89286 	2.80559e-20 1.23834 	-1.88304 	4.99355e-20 1.2413 	-1.85772 	2.55094e-19 1.2446 	-1.83271 	4.62192e-19 1.2502 	-1.80896 	3.90394e-19 1.25674 	-1.78583 	2.42487e-19 1.26406 	-1.76186 	8.72977e-20 1.26505 	-1.75885 	6.92243e-20 1.26605 	-1.75584 	5.11615e-20 1.26708 	-1.75286 	3.6669e-20 1.26831 	-1.75003 	4.97954e-20 1.26952 	-1.74726 	6.27354e-20 1.27549 	-1.72081 	4.02724e-20 1.28224 	-1.69492 	1.6496e-20 1.29083 	-1.67033 	0 1.30105 	-1.64705 	0 1.31049 	-1.62717 	0 1.31266 	-1.61926 	0 1.31488 	-1.61138 	4.27998e-25 1.31764 	-1.60395 	4.7273e-23 1.32046 	-1.59656 	9.41813e-23 1.3234 	-1.58901 	1.42424e-22 1.32942 	-1.57414 	1.64516e-22 1.33566 	-1.55945 	1.87345e-22 1.34213 	-1.54495 	2.10915e-22 1.34932 	-1.53151 	-2.56121e-20 1.35615 	-1.51935 	-5.0418e-20 1.364 	-1.49793 	-1.62589e-19 1.37233 	-1.47701 	-2.57732e-19 1.38164 	-1.45753 	-2.2533e-19 1.39137 	-1.43841 	-1.93395e-19 1.4025 	-1.41782 	-1.58912e-19 1.40256 	-1.41772 	-1.58776e-19 1.40263 	-1.41761 	-1.5864e-19 1.40269 	-1.4175 	-1.58505e-19 1.40275 	-1.4174 	-1.58482e-19 1.40281 	-1.41731 	-1.58496e-19 1.41233 	-1.39789 	-1.09302e-19 1.42233 	-1.37884 	-5.9824e-20 1.43277 	-1.36013 	-1.01997e-20 1.4436 	-1.34289 	1.01927e-20 1.45374 	-1.32794 	2.15717e-20 1.46276 	-1.30974 	1.75442e-20 1.4721 	-1.29227 	1.7342e-20 1.48171 	-1.27596 	2.47873e-20 1.49167 	-1.25992 	3.2151e-20 1.50318 	-1.24234 	4.02733e-20 1.50335 	-1.2421 	4.01569e-20 1.50353 	-1.24185 	4.00405e-20 1.5037 	-1.24161 	3.99242e-20 1.50387 	-1.24138 	3.99124e-20 1.50403 	-1.24116 	3.99846e-20 1.51406 	-1.22453 	6.40716e-20 1.52453 	-1.20823 	8.58302e-20 1.53539 	-1.19221 	1.07317e-19 1.54619 	-1.17739 	8.64967e-20 1.55623 	-1.16455 	4.03847e-20 1.56633 	-1.14785 	8.91776e-20 1.57676 	-1.13146 	1.35945e-19 1.58679 	-1.11682 	1.16363e-19 1.5974 	-1.10265 	8.72955e-20 1.6081 	-1.09014 	4.07966e-20 1.61265 	-1.0834 	8.85281e-20 1.61702 	-1.07711 	8.91852e-20 1.62131 	-1.0711 	6.18321e-20 1.62567 	-1.06513 	3.45802e-20 1.63035 	-1.05884 	5.75496e-21 1.6364 	-1.05104 	-3.09311e-20 1.64255 	-1.04332 	-6.74321e-20 1.6488 	-1.03566 	-1.03748e-19 1.65492 	-1.02841 	-1.01577e-19 1.66048 	-1.02208 	-2.47041e-20 1.67052 	-1.00756 	4.67225e-20 1.68112 	-0.993579 	9.64265e-20 1.6923 	-0.98031 	1.15664e-19 1.70252 	-0.968892 	7.09627e-20 1.71246 	-0.958244 	2.81686e-20 1.72315 	-0.944176 	3.29021e-20 1.73381 	-0.930721 	3.74382e-20 1.74368 	-0.918758 	4.19031e-20 1.7539 	-0.907075 	4.52666e-20 1.76432 	-0.896684 	4.33229e-20 1.77048 	-0.889256 	6.0197e-20 1.77602 	-0.882698 	5.66585e-20 1.78152 	-0.876307 	5.01651e-20 1.78711 	-0.869966 	4.36314e-20 1.7933 	-0.863098 	3.6456e-20 1.79792 	-0.858176 	3.51876e-20 1.80259 	-0.853285 	3.38663e-20 1.80731 	-0.848424 	3.24925e-20 1.81202 	-0.843658 	2.92829e-20 1.816 	-0.839753 	4.81834e-21 1.82605 	-0.827746 	-1.22712e-21 1.83659 	-0.816554 	-7.37627e-21 1.84739 	-0.805517 	-1.35882e-20 1.85745 	-0.795622 	-1.43862e-20 1.86653 	-0.787065 	-1.03199e-20 1.87703 	-0.775284 	6.06158e-20 1.8878 	-0.76365 	1.31684e-19 1.89793 	-0.753502 	1.39849e-19 1.90733 	-0.744816 	8.66582e-20 1.91666 	-0.736492 	3.47708e-20 1.92763 	-0.725083 	9.92174e-20 1.93798 	-0.714582 	1.34392e-19 1.94732 	-0.705322 	1.27192e-19 1.95687 	-0.696256 	1.15615e-19 1.96641 	-0.688157 	6.95289e-20 1.97574 	-0.679055 	1.0636e-19 1.98365 	-0.671391 	9.19925e-20 1.9917 	-0.663802 	7.77138e-20 1.9999 	-0.656289 	6.3524e-20 2.00954 	-0.647689 	4.72208e-20 2.0108 	-0.646617 	4.55655e-20 2.01206 	-0.645547 	4.39111e-20 2.01332 	-0.644478 	4.22578e-20 2.01458 	-0.643411 	4.06055e-20 2.01561 	-0.642552 	4.29467e-20 2.02509 	-0.633651 	5.17873e-20 2.03475 	-0.624975 	5.44232e-20 2.0446 	-0.616397 	5.68566e-20 2.05464 	-0.607915 	5.90894e-20 2.06249 	-0.60145 	1.75562e-20 2.07246 	-0.592137 	3.50154e-21 2.08236 	-0.583546 	6.83839e-23 2.09237 	-0.575249 	5.84076e-23 2.10094 	-0.56828 	-6.0158e-21 2.10852 	-0.562265 	-1.58144e-20 2.11875 	-0.553275 	-7.69127e-20 2.12917 	-0.544372 	-1.38065e-19 2.13858 	-0.53677 	-1.4195e-19 2.1461 	-0.530828 	-9.31791e-20 2.15366 	-0.525018 	-4.49377e-20 2.1641 	-0.516346 	-3.02892e-20 2.17473 	-0.507756 	-1.55687e-20 2.18287 	-0.50109 	-9.02567e-22 2.19036 	-0.495314 	-1.36818e-20 2.19784 	-0.489707 	-2.84822e-20 2.20846 	-0.481348 	-7.77685e-20 2.21766 	-0.474108 	-8.51525e-20 2.22564 	-0.467825 	-5.66296e-20 2.23364 	-0.461711 	-2.2335e-20 2.24101 	-0.456302 	4.29289e-20 2.25144 	-0.448449 	5.38127e-20 2.25928 	-0.442365 	3.8685e-20 2.26726 	-0.436332 	2.35105e-20 2.27537 	-0.430347 	8.29001e-21 2.28311 	-0.424769 	1.975e-22 2.28974 	-0.419893 	1.93878e-20 2.29527 	-0.415726 	6.87077e-21 2.30087 	-0.411583 	-5.57169e-21 2.30654 	-0.407462 	-1.794e-20 2.31306 	-0.402804 	-3.19131e-20 2.31525 	-0.40128 	-3.79769e-20 2.31745 	-0.39976 	-4.40233e-20 2.31966 	-0.398242 	-5.00525e-20 2.32188 	-0.396728 	-5.60645e-20 2.32367 	-0.395478 	-4.11641e-20 2.33152 	-0.389713 	-1.5577e-20 2.33931 	-0.384124 	1.26656e-21 2.34723 	-0.378575 	1.79708e-20 2.35528 	-0.373068 	3.45367e-20 2.36136 	-0.368796 	2.92822e-21 2.36991 	-0.36282 	8.94816e-23 2.37761 	-0.357463 	5.93264e-23 2.38542 	-0.352143 	2.92079e-23 2.39326 	-0.346917 	-2.77385e-22 2.39774 	-0.343605 	-9.77058e-21 2.4067 	-0.337672 	-1.82584e-21 2.41463 	-0.332366 	0 2.42232 	-0.32727 	0 2.42855 	-0.323015 	0 2.43279 	-0.319855 	0 2.44176 	-0.314182 	0 2.45034 	-0.308769 	-2.49139e-21 2.45788 	-0.303893 	-1.05387e-20 2.46251 	-0.300509 	-2.62701e-20 2.4665 	-0.297496 	-4.37404e-20 2.47545 	-0.292077 	-9.62612e-20 2.48453 	-0.286689 	-1.48798e-19 2.49148 	-0.282235 	-1.48745e-19 2.49515 	-0.279341 	-9.62183e-20 2.49887 	-0.276471 	-4.38284e-20 2.50778 	-0.2713 	-2.62953e-20 2.51681 	-0.266157 	-8.75756e-21 2.52305 	-0.262206 	-4.2049e-21 2.52644 	-0.259454 	-1.24174e-20 2.52989 	-0.256722 	-2.0619e-20 2.53873 	-0.251793 	-8.15201e-20 2.54769 	-0.246889 	-1.42449e-19 2.55329 	-0.243403 	-1.4181e-19 2.55639 	-0.240788 	-7.97888e-20 2.55956 	-0.238191 	-1.78906e-20 2.56832 	-0.233497 	-7.89256e-20 2.57688 	-0.228948 	-1.34848e-19 2.58187 	-0.225856 	-1.30821e-19 2.58502 	-0.223285 	-8.44478e-20 2.58789 	-0.220817 	-3.08178e-20 2.59656 	-0.216352 	-8.26614e-20 2.60395 	-0.212419 	-1.18661e-19 2.60877 	-0.209486 	-1.24198e-19 2.61232 	-0.206884 	-1.01451e-19 2.61489 	-0.204542 	-5.69737e-20 2.62345 	-0.200298 	-1.00609e-19 2.62971 	-0.196913 	-1.17113e-19 2.63435 	-0.194133 	-1.14533e-19 2.63831 	-0.191527 	-9.67319e-20 2.64059 	-0.189306 	-4.39675e-20 2.64903 	-0.185277 	4.42501e-20 2.65419 	-0.182379 	6.49037e-20 2.65865 	-0.179747 	7.01088e-20 2.66301 	-0.177157 	6.99118e-20 2.66499 	-0.175053 	-9.00807e-21 2.6732 	-0.171262 	1.38806e-22 2.67742 	-0.168764 	9.33327e-21 2.68169 	-0.166274 	1.8522e-20 2.68603 	-0.163793 	2.77049e-20 2.68814 	-0.161727 	4.40426e-20 2.69539 	-0.158378 	-2.43295e-20 2.69941 	-0.156017 	-2.08529e-20 2.70351 	-0.153664 	-1.74363e-20 2.70766 	-0.151318 	-1.40795e-20 2.71004 	-0.149273 	3.3319e-20 2.71637 	-0.146318 	2.66915e-20 2.72021 	-0.144089 	8.98805e-21 2.72412 	-0.141867 	-8.71628e-21 2.72808 	-0.139651 	-2.64215e-20 2.73073 	-0.137641 	-5.20634e-20 2.73619 	-0.135036 	-3.66815e-20 2.73985 	-0.132933 	-3.72903e-20 2.74356 	-0.130836 	-3.78886e-20 2.74733 	-0.128745 	-3.84763e-20 2.75024 	-0.126781 	-4.42553e-20 2.75488 	-0.124486 	-3.96033e-20 2.75836 	-0.122504 	-4.01423e-20 2.76188 	-0.120527 	-4.06714e-20 2.76546 	-0.118554 	-4.11905e-20 2.76861 	-0.116645 	-4.43398e-20 2.77248 	-0.114625 	-5.94165e-20 2.77577 	-0.112758 	-5.60199e-20 2.77911 	-0.110895 	-5.26887e-20 2.7825 	-0.109036 	-4.94226e-20 2.78588 	-0.107189 	-4.40407e-20 2.78639 	-0.106924 	-4.15517e-20 2.78682 	-0.106676 	-3.90635e-20 2.78725 	-0.106428 	-3.65754e-20 2.78769 	-0.10618 	-3.40873e-20 2.78814 	-0.105925 	-3.15266e-20 2.7908 	-0.104414 	-1.63772e-20 2.7935 	-0.102905 	-1.22753e-21 2.79624 	-0.1014 	1.39225e-20 2.79901 	-0.0998977 	2.90729e-20 2.80137 	-0.098496 	4.2865e-20 2.80461 	-0.0967965 	4.2e-20 2.80755 	-0.0951418 	4.15935e-20 2.81053 	-0.0934905 	4.11953e-20 2.81356 	-0.0918425 	4.08052e-20 2.81573 	-0.0903888 	4.22937e-20 2.81917 	-0.0887513 	3.32777e-20 2.82194 	-0.0871963 	2.42664e-20 2.82474 	-0.0856442 	1.52588e-20 2.82759 	-0.084095 	6.25498e-21 2.82915 	-0.0828126 	2.74508e-21 2.83278 	-0.0812416 	1.1849e-20 2.83537 	-0.0797814 	2.91977e-20 2.83801 	-0.0783237 	4.65539e-20 2.84068 	-0.0768685 	6.39176e-20 2.84167 	-0.0757353 	8.83665e-20 2.84546 	-0.074234 	7.35951e-20 2.84789 	-0.0728638 	7.29905e-20 2.85036 	-0.0714958 	7.23996e-20 2.85286 	-0.07013 	7.18221e-20 2.85334 	-0.0691264 	8.40118e-20 2.85727 	-0.0676969 	6.18313e-20 2.85954 	-0.0664121 	4.3924e-20 2.86184 	-0.0651293 	2.60229e-20 2.86418 	-0.0638483 	8.12794e-21 2.86418 	-0.0629571 	0 2.86823 	-0.0616006 	-1.1023e-23 2.87035 	-0.0603968 	-3.61337e-23 2.87249 	-0.0591946 	-6.12533e-23 2.87467 	-0.0579941 	-8.63816e-23 2.87424 	-0.0572003 	5.33492e-21 2.87839 	-0.0559171 	4.43416e-20 2.88035 	-0.05479 	4.52139e-20 2.88234 	-0.0536643 	4.60639e-20 2.88437 	-0.0525401 	4.68916e-20 2.88354 	-0.0518304 	6.05809e-21 2.88778 	-0.0506201 	8.59732e-23 2.88959 	-0.0495657 	5.97677e-23 2.89144 	-0.0485125 	3.35697e-23 2.89331 	-0.0474604 	7.37926e-24 2.89213 	-0.0468234 	6.37162e-21 2.89643 	-0.0456851 	6.99716e-21 2.89811 	-0.0446994 	3.31109e-20 2.89981 	-0.0437148 	5.92321e-20 2.90154 	-0.0427311 	8.53608e-20 2.90004 	-0.0421568 	1.18285e-19 2.90439 	-0.0410891 	1.45448e-19 2.90593 	-0.0401684 	1.45601e-19 2.90749 	-0.0392486 	1.4575e-19 2.90908 	-0.0383296 	1.45894e-19 2.90729 	-0.0378093 	1.03475e-19 2.91167 	-0.0368105 	8.23691e-20 2.91308 	-0.0359512 	4.71021e-20 2.91452 	-0.0350927 	1.18393e-20 2.91598 	-0.0342349 	-2.34194e-20 2.91394 	-0.0337612 	-5.12638e-20 2.91832 	-0.0328291 	3.01786e-20 2.91961 	-0.0320279 	3.06948e-20 2.92092 	-0.0312273 	3.11909e-20 2.92226 	-0.0304273 	3.16671e-20 2.91999 	-0.0299938 	-3.62149e-20 2.92437 	-0.0291262 	3.47095e-20 2.92554 	-0.0283798 	5.25132e-20 2.92674 	-0.0276339 	7.03019e-20 2.92795 	-0.0268885 	8.80758e-20 2.92549 	-0.0264898 	5.14857e-20 2.92985 	-0.0256842 	9.23563e-20 2.93091 	-0.0249895 	1.09941e-19 2.93199 	-0.0242952 	1.27519e-19 2.93309 	-0.0236013 	1.4509e-19 2.93047 	-0.0232329 	1.15232e-19 2.93479 	-0.0224866 	8.26396e-20 2.93575 	-0.0218407 	7.37453e-20 2.93672 	-0.0211951 	6.48592e-20 2.93771 	-0.0205499 	5.59811e-20 2.93494 	-0.0202077 	7.91169e-20 2.93922 	-0.0195182 	5.29741e-20 2.94007 	-0.0189182 	2.68191e-20 2.94094 	-0.0183186 	6.6552e-22 2.94183 	-0.0177192 	-2.54866e-20 2.93895 	-0.0174001 	-1.93613e-20 2.94316 	-0.0167644 	3.83583e-20 2.94392 	-0.0162079 	5.58882e-20 2.94469 	-0.0156515 	7.34068e-20 2.94548 	-0.0150955 	9.09141e-20 2.9425 	-0.0147966 	3.5601e-20 2.94665 	-0.0142121 	-1.01226e-19 2.94731 	-0.0136964 	-9.27373e-20 2.94799 	-0.0131809 	-8.42239e-20 2.94869 	-0.0126656 	-7.56855e-20 2.94564 	-0.0123847 	5.41655e-20 2.94971 	-0.0118486 	5.35767e-20 2.95028 	-0.0113714 	4.48759e-20 2.95088 	-0.0108943 	3.61788e-20 2.95149 	-0.0104174 	2.74853e-20 2.94839 	-0.0101528 	5.08694e-20 2.95236 	-0.00966233 	2.19414e-19 2.95285 	-0.0092213