# vtk DataFile Version 2.0
track0
ASCII
DATASET POLYDATA
POINTS 12288 float
-0.0205 0.001 1e-05
-0.02052 0.000999216 1e-05
-0.02054 0.000998592 1e-05
-0.02056 0.000998126 1e-05
-0.02058 0.000997818 1e-05
-0.0206 0.000997665 1e-05
-0.0205 0.00367778 1e-05
-0.02052 0.00367703 1e-05
-0.02054 0.00367643 1e-05
-0.02056 0.00367599 1e-05
-0.02058 0.00367569 1e-05
-0.0206 0.00367554 1e-05
-0.0205 0.00635556 1e-05
-0.02052 0.00635527 1e-05
-0.02054 0.00635505 1e-05
-0.02056 0.00635488 1e-05
-0.02058 0.00635476 1e-05
-0.0206 0.00635471 1e-05
-0.0205 0.00903333 1e-05
-0.02052 0.00903311 1e-05
-0.02054 0.00903293 1e-05
-0.02056 0.0090328 1e-05
-0.02058 0.00903271 1e-05
-0.0206 0.00903266 1e-05
-0.0205 0.0117111 1e-05
-0.02052 0.0117111 1e-05
-0.02054 0.011711 1e-05
-0.02056 0.011711 1e-05
-0.02058 0.011711 1e-05
-0.0206 0.011711 1e-05
-0.0205 0.0143889 1e-05
-0.02052 0.014389 1e-05
-0.02054 0.014389 1e-05
-0.02056 0.0143891 1e-05
-0.02058 0.0143891 1e-05
-0.0206 0.0143891 1e-05
-0.0205 0.0170667 1e-05
-0.02052 0.017067 1e-05
-0.02054 0.0170672 1e-05
-0.02056 0.0170674 1e-05
-0.02058 0.0170675 1e-05
-0.0206 0.0170676 1e-05
-0.0205 0.0197444 1e-05
-0.02052 0.019745 1e-05
-0.02054 0.0197454 1e-05
-0.02056 0.0197457 1e-05
-0.02058 0.0197459 1e-05
-0.0206 0.019746 1e-05
-0.0205 0.0224222 1e-05
-0.02052 0.022423 1e-05
-0.02054 0.0224236 1e-05
-0.02056 0.0224241 1e-05
-0.02058 0.0224244 1e-05
-0.0206 0.0224245 1e-05
-0.0205 0.0251 1e-05
-0.02052 0.0251003 1e-05
-0.02054 0.0251005 1e-05
-0.02056 0.0251007 1e-05
-0.02058 0.0251008 1e-05
-0.0206 0.0251008 1e-05
-0.0205 0.001 1e-05
-0.0203632 0.00100536 1e-05
-0.0202266 0.00101331 1e-05
-0.0200901 0.00102296 1e-05
-0.0200427 0.00102682 1e-05
-0.0198376 0.00104418 1e-05
-0.0196338 0.00107322 1e-05
-0.0194327 0.00111734 1e-05
-0.0192367 0.00118023 1e-05
-0.0190172 0.0012495 1e-05
-0.0189002 0.00128347 1e-05
-0.0187827 0.00131598 1e-05
-0.0186649 0.00134699 1e-05
-0.0185468 0.001377 1e-05
-0.0183806 0.00141936 1e-05
-0.018204 0.00146457 1e-05
-0.0180267 0.00150691 1e-05
-0.0178487 0.00154638 1e-05
-0.0176703 0.00158387 1e-05
-0.0174976 0.00161987 1e-05
-0.0172846 0.00166391 1e-05
-0.0170714 0.00170739 1e-05
-0.0168582 0.00175028 1e-05
-0.0166447 0.00179218 1e-05
-0.0163943 0.00184007 1e-05
-0.0163232 0.00185323 1e-05
-0.016252 0.00186627 1e-05
-0.0161809 0.00187918 1e-05
-0.0161097 0.00189198 1e-05
-0.0160387 0.00190456 1e-05
-0.0157586 0.00195346 1e-05
-0.0154779 0.00199927 1e-05
-0.0151968 0.00204222 1e-05
-0.0149154 0.00208281 1e-05
-0.0146381 0.00212133 1e-05
-0.0143839 0.00215526 1e-05
-0.0141296 0.00218766 1e-05
-0.013875 0.00221856 1e-05
-0.0136203 0.00224801 1e-05
-0.0132934 0.00228382 1e-05
-0.0132794 0.00228525 1e-05
-0.0132653 0.00228668 1e-05
-0.0132513 0.0022881 1e-05
-0.0132372 0.00228952 1e-05
-0.0132228 0.00229098 1e-05
-0.0129787 0.00231551 1e-05
-0.0127346 0.00233881 1e-05
-0.0124903 0.00236086 1e-05
-0.0122459 0.00238162 1e-05
-0.0120025 0.002401 1e-05
-0.0117547 0.00241958 1e-05
-0.0115067 0.00243685 1e-05
-0.0112587 0.00245298 1e-05
-0.0110106 0.00246811 1e-05
-0.0107632 0.00248223 1e-05
-0.0105252 0.0024949 1e-05
-0.0102872 0.00250659 1e-05
-0.0100491 0.00251727 1e-05
-0.00981105 0.00252714 1e-05
-0.00957337 0.00253625 1e-05
-0.00934491 0.0025443 1e-05
-0.00911643 0.00255161 1e-05
-0.00888792 0.00255815 1e-05
-0.0086594 0.00256395 1e-05
-0.00843108 0.00256911 1e-05
-0.00821175 0.00257348 1e-05
-0.00799241 0.00257724 1e-05
-0.00777306 0.00258039 1e-05
-0.0075537 0.00258284 1e-05
-0.00733443 0.00258471 1e-05
-0.00712387 0.00258595 1e-05
-0.0069133 0.00258665 1e-05
-0.00670273 0.0025868 1e-05
-0.00649216 0.00258628 1e-05
-0.0062816 0.00258515 1e-05
-0.00607944 0.00258347 1e-05
-0.0058773 0.00258126 1e-05
-0.00567515 0.0025785 1e-05
-0.00547302 0.00257502 1e-05
-0.00527083 0.00257083 1e-05
-0.00507675 0.00256612 1e-05
-0.00488269 0.0025608 1e-05
-0.00468865 0.00255487 1e-05
-0.00449463 0.00254812 1e-05
-0.00430044 0.00254047 1e-05
-0.00411412 0.00253226 1e-05
-0.00392783 0.00252328 1e-05
-0.00374158 0.00251352 1e-05
-0.00355539 0.00250281 1e-05
-0.00336883 0.00249087 1e-05
-0.00318995 0.00247828 1e-05
-0.00301115 0.00246462 1e-05
-0.00283243 0.00244987 1e-05
-0.00265383 0.00243385 1e-05
-0.00247443 0.00241627 1e-05
-0.0023027 0.00239786 1e-05
-0.00213114 0.00237794 1e-05
-0.0019598 0.00235619 1e-05
-0.0017887 0.0023326 1e-05
-0.00161577 0.00230687 1e-05
-0.00159594 0.00230369 1e-05
-0.00157611 0.00230048 1e-05
-0.00155629 0.00229723 1e-05
-0.00153648 0.00229395 1e-05
-0.00151879 0.00229098 1e-05
-0.00137331 0.0022663 1e-05
-0.00122816 0.00223981 1e-05
-0.00108334 0.00221155 1e-05
-0.000938865 0.00218155 1e-05
-0.000791418 0.00214897 1e-05
-0.000633135 0.00211135 1e-05
-0.000475548 0.00207091 1e-05
-0.000318696 0.00202771 1e-05
-0.000162761 0.0019813 1e-05
0 0.00192874 1e-05
4.81216e-05 0.00191189 1e-05
9.60777e-05 0.00189458 1e-05
0.00014387 0.00187682 1e-05
0.000191499 0.00185863 1e-05
0.000228081 0.00184428 1e-05
0.000288142 0.00182023 1e-05
0.000347893 0.00179543 1e-05
0.000407323 0.00176986 1e-05
0.000466423 0.00174354 1e-05
0.000528387 0.00171505 1e-05
0.000634886 0.00166448 1e-05
0.000740278 0.00161164 1e-05
0.000844504 0.00155654 1e-05
0.000947592 0.00149934 1e-05
0.00105773 0.00143525 1e-05
0.00105836 0.00143487 1e-05
0.00105899 0.00143448 1e-05
0.00105962 0.0014341 1e-05
0.00106025 0.00143371 1e-05
0.00106088 0.00143332 1e-05
0.00116821 0.00136751 1e-05
0.00127404 0.00129931 1e-05
0.00137828 0.00122871 1e-05
0.00148093 0.00115582 1e-05
0.00159752 0.00106956 1e-05
0.00160372 0.00106475 1e-05
0.00160992 0.00105992 1e-05
0.00161611 0.00105508 1e-05
0.0016223 0.00105024 1e-05
0.00162838 0.00104547 1e-05
0.00172215 0.000971742 1e-05
0.00181447 0.000896194 1e-05
0.00190524 0.000818794 1e-05
0.00199459 0.000739768 1e-05
0.00206381 0.000676567 1e-05
0.00207871 0.000662604 1e-05
0.00209357 0.000648589 1e-05
0.00210837 0.000634522 1e-05
0.00212314 0.000620419 1e-05
0.00213833 0.000605851 1e-05
0.00219586 0.000550357 1e-05
0.00225278 0.000494227 1e-05
0.00230905 0.000437452 1e-05
0.00236465 0.000380022 1e-05
0.00241383 0.000328332 1e-05
0.00246773 0.000270766 1e-05
0.00252103 0.00021264 1e-05
0.00257373 0.000153971 1e-05
0.00262593 9.48571e-05 1e-05
0.00268334 2.86861e-05 1e-05
0.00268822 2.29489e-05 1e-05
0.00269309 1.7207e-05 1e-05
0.00269796 1.14605e-05 1e-05
0.00270282 5.70934e-06 1e-05
0.00270763 0 1e-05
0.00276977 -7.37388e-05 1e-05
0.00283122 -0.000148043 1e-05
0.00289197 -0.000222919 1e-05
0.002952 -0.000298376 1e-05
0.00300696 -0.000368662 1e-05
0.00305209 -0.000427332 1e-05
0.00309685 -0.000486277 1e-05
0.00314126 -0.000545492 1e-05
0.00318536 -0.000604935 1e-05
0.00323259 -0.000669301 1e-05
0.00324864 -0.000691449 1e-05
0.00326464 -0.000713634 1e-05
0.00328059 -0.000735856 1e-05
0.00329649 -0.000758115 1e-05
0.00331208 -0.000780036 1e-05
0.00337704 -0.000871794 1e-05
0.00344132 -0.000964039 1e-05
0.00350489 -0.00105677 1e-05
0.0035678 -0.00114995 1e-05
0.00362695 -0.00123875 1e-05
0.00365878 -0.00128717 1e-05
0.00369046 -0.00133569 1e-05
0.00372199 -0.00138431 1e-05
0.00375341 -0.001433 1e-05
0.00378611 -0.00148394 1e-05
0.00382006 -0.00153715 1e-05
0.00385383 -0.00159047 1e-05
0.00388742 -0.00164391 1e-05
0.00392081 -0.00169747 1e-05
0.00395331 -0.00174994 1e-05
0.0040234 -0.00186385 1e-05
0.00409283 -0.00197816 1e-05
0.00416156 -0.00209289 1e-05
0.00422975 -0.00220794 1e-05
0.0042951 -0.00231937 1e-05
0.00430487 -0.00233617 1e-05
0.00431462 -0.00235298 1e-05
0.00432437 -0.0023698 1e-05
0.00433411 -0.00238662 1e-05
0.00434393 -0.00240359 1e-05
0.00440752 -0.00251357 1e-05
0.00447067 -0.0026238 1e-05
0.00453339 -0.00273427 1e-05
0.00459566 -0.00284501 1e-05
0.00465622 -0.00295342 1e-05
0.0047062 -0.00304344 1e-05
0.00475596 -0.00313358 1e-05
0.00480551 -0.00322383 1e-05
0.00485494 -0.00331415 1e-05
0.00490609 -0.00340788 1e-05
0.00493344 -0.00345815 1e-05
0.00496071 -0.00350845 1e-05
0.00498792 -0.00355879 1e-05
0.00501505 -0.00360917 1e-05
0.00504194 -0.0036592 1e-05
0.00512623 -0.00381629 1e-05
0.00521011 -0.00397361 1e-05
0.00529356 -0.00413115 1e-05
0.00537683 -0.0042888 1e-05
0.00545895 -0.00444461 1e-05
0.00546169 -0.0044498 1e-05
0.00546442 -0.00445499 1e-05
0.00546715 -0.00446019 1e-05
0.00546989 -0.00446538 1e-05
0.00547262 -0.00447057 1e-05
0.00556189 -0.00464015 1e-05
0.00565102 -0.00480979 1e-05
0.00574 -0.00497952 1e-05
0.00582891 -0.00514929 1e-05
0.00591775 -0.00531842 1e-05
0.00594291 -0.00536618 1e-05
0.00596808 -0.00541394 1e-05
0.00599326 -0.00546169 1e-05
0.00601847 -0.00550943 1e-05
0.00604356 -0.00555685 1e-05
0.0061213 -0.00570355 1e-05
0.00619912 -0.00585021 1e-05
0.00627703 -0.00599682 1e-05
0.00635512 -0.00614334 1e-05
0.00643393 -0.00629038 1e-05
0.00647093 -0.00635901 1e-05
0.006508 -0.00642761 1e-05
0.00654513 -0.00649617 1e-05
0.00658234 -0.00656468 1e-05
0.00661893 -0.00663176 1e-05
0.0066999 -0.00677964 1e-05
0.00678116 -0.00692735 1e-05
0.00686272 -0.00707489 1e-05
0.00694471 -0.0072222 1e-05
0.00702838 -0.0073712 1e-05
0.00706246 -0.00743133 1e-05
0.00709663 -0.00749141 1e-05
0.00713088 -0.00755144 1e-05
0.00716522 -0.00761142 1e-05
0.00719878 -0.00766974 1e-05
0.00730312 -0.00785028 1e-05
0.00740821 -0.00803038 1e-05
0.00751409 -0.00821002 1e-05
0.007621 -0.00838905 1e-05
0.00773219 -0.0085726 1e-05
0.00774238 -0.00858916 1e-05
0.00775258 -0.00860572 1e-05
0.00776279 -0.00862228 1e-05
0.007773 -0.00863882 1e-05
0.00778313 -0.00865521 1e-05
0.00790091 -0.0088454 1e-05
0.00801992 -0.00903483 1e-05
0.0081402 -0.00922346 1e-05
0.00826192 -0.00941115 1e-05
0.00837203 -0.00957778 1e-05
0.00838896 -0.00960297 1e-05
0.00840591 -0.00962813 1e-05
0.00842289 -0.00965327 1e-05
0.0084399 -0.0096784 1e-05
0.00845707 -0.00970369 1e-05
0.00855876 -0.00985313 1e-05
0.00866146 -0.0100019 1e-05
0.0087652 -0.0101499 1e-05
0.00887 -0.0102971 1e-05
0.00896551 -0.0104291 1e-05
0.00902505 -0.0105102 1e-05
0.00908493 -0.010591 1e-05
0.00914515 -0.0106716 1e-05
0.00920574 -0.0107518 1e-05
0.00926871 -0.0108345 1e-05
0.00932769 -0.0109111 1e-05
[...]
POINT_DATA 12288
 FIELD attributes 2
p 1 12288 float
179092 179174 179246 179309 179363 179408
111027 111046 111062 111076 111088 111099
89839.3 89848.8 89858.2 89867.3 89876.3 89884.7
82026.5 82032.8 82039 82045.1 82051.2 82057.1
79239.2 79248.4 79257.6 79266.8 79276 79285.3
79659.7 79673.3 79686.9 79700.4 79714 79727.5
83196.8 83209.2 83221.5 83233.6 83245.5 83257.3
93027.9 93047.7 93066.7 93085 93102.6 93119.4
119464 119496 119527 119555 119581 119605
217583 217393 217201 217007 216811 216613
179092 175486 171159 166581 164914 160983 157600 154949 146784 136743 131300 125871 121932 121321 120469 114424 108525 104404 103508 102641 101658 100675 99247.8 97778.7 96062.3 95695.9 95329.1 94961.6 94480.8 93983.3 92063.3 90259 88744.1 87955.9 87178.2 86491.9 85826.6 85176.4 84524.2 83688 83653.8 83625.4 83597.8 83570.3 83542 83007.8 82473.9 81940.6 81407.8 80981.4 80554.2 80143.7 79744.9 79368.5 79001.6 78650.7 78299.4 77974.5 77671.9 77369.8 77079.1 76788.4 76508.6 76244.7 75981 75726.3 75471.5 75220.2 74982.9 74745.8 74515.9 74285.8 74054.5 73833.6 73613.5 73399 73184.5 72964.4 72752.9 72541.6 72333.8 72126.2 71911.6 71699 71486.6 71274.5 71062.9 70845.9 70618.4 70391.2 70158.9 69925.3 69682.5 69427.7 69163.5 68886.4 68578.6 68269.3 67961.5 67646.1 67603.4 67552.3 67500.6 67448.8 67402.7 67063.5 66728.7 66398.1 66049.7 65633.3 65125.7 64623.8 63966.7 63202.2 62401.9 62086.8 61785 61496.9 61209.7 60989.1 60515.7 60040.7 59564.2 59163.7 58768.6 58172.8 57574.5 57035.6 56501.5 55923.1 55918.6 55914.2 55910 55906.3 55902.7 55358.6 54807.3 54280.6 53813.7 53269.7 53242.4 53215.1 53190 53168.1 53146.5 52724.9 52296 51911.1 51576.6 51309.6 51235.3 51160.8 51108 51055.7 51001.6 50796.3 50588.2 50377.3 50218.3 50074.6 49909.1 49748.3 49613.7 49477.1 49323.2 49309.6 49296 49282.3 49269.9 49258.1 49153.2 49036.6 48917.3 48799.4 48688.4 48647.1 48604.4 48558.8 48512.4 48461.3 48440.9 48420.3 48399.6 48378.2 48356.9 48323.4 48286.2 48240.3 48188.8 48138.5 48136.2 48133.2 48126.7 48120 48112.7 48097.9 48082.7 48067.2 48049.3 48031.2 48029.7 48027.2 48019.7 48010.6 48000.5 48003.1 48005.7 48007.7 48009.6 48011.6 48012 48011.9 48011.3 48008.2 48004.7 48015.9 48026.8 48036.3 48045.6 48055.1 48055.6 48056 48056.4 48056.6 48056.7 48072.9 48088.9 48104.2 48119.4 48135 48135.9 48136.8 48137.7 48138.6 48139.5 48156.4 48173.2 48190.1 48207.9 48225.7 48232.8 48239.9 48247.2 48254.5 48261.9 48275.5 48289.1 48303.4 48318.8 48334.5 48343.7 48353 48362.7 48372.8 48382.7 48396.1 48409.6 48424.5 48440.5 48456.9 48464.7 48472.5 48480.5 48489.1 48497.6 48514.1 48530.8 48550.2 48570.7 48592.2 48594.4 48596.5 48598.7 48601 48603.3 48621.8 48640.5 48661.7 48684.8 48705.8 48707.8 48709.9 48712.3 48714.9 48717.4 48733.8 48750.4 48767.4 48786 48803 48810.4 48818 48826.5 48835.2 48844.3 48853.3 48862.4 48871.5 48881.4 48890.8 48905.6 48920.6 48937.4 48954.4 48970.1 48970.7 48971.3 48972 48972.7 48973.4 48987.8 49002.3 49017 49033.1 49047.9 49057.7 49067.8 49078.9 49090.2 49102.4 49105 49107.5 49110.1 49112.8 49115.6 49127.6 49140.4 49153.3 49167.7 49181 49190.1 49199.8 49210.3 49220.9 49232.6 49233.5 49234.5 49235.5 49236.5 49237.6 49248.1 49258.9 49269.7 49281.4 49292.8 49301.3 49309.8 49319.7 49329.9 49340.1 49343.4 49347.1 49351.1 49355.1 49359.3 49363.9 49368.5 49373.1 49377.9 49383 49389.8 49397 49404.5 49413.2 49421.6 49427 49432.5 49439.1 49446.1 49453.2 49456.2 49459.9 49463.7 49467.6 49471.8 49473.2 49474.6 49476 49477.4 49479.1 49483.1 49487.4 49491.6 49496.2 49501.4 49503.6 49505.8 49508.9 49512.9 49516.8 49517.7 49518.7 49520.6 49522.8 49525.4 49524.9 49525.5 49526.1 49526.6 49527.2 49526.9 49526.7 49526.5 49526.3 49526.2 49525.7 49525.3 49524.8 49524.3 49524.3 49521.9 49520 49518 49516.3 49515.2 49511.3 49507.5 49504.2 49501.7 49499.2 49494 49488.7 49484.1 49480.2 49476.4 49469.9 49463.5 49457.6 49452.2 49447 49439.2 49432 49424.8 49417.6 49411 49402.2 49393.8 49385.4 49376.9 49368.7 49364.4 49360.2 49356.1 49351.9 49347.4 49342 49336.7 49331.3 49325.9 49320.7 49309.8 49299 49288.3 49277.5 49267 49254.6 49242.7 49230.7 49218.8 49207.2 49193.6 49180.4 49167.3 49154.4 49141.6 49126.9 49112.4 49098.2 49084.3 49070.4 49054.7 49038.9 49023.7 49008.7 48993.7 48977 48960.3 48944 48927.9 48911.8 48894.2 48876.6 48859.2 48842.1 48825 48806.6 48788 48769.6 48751.5 48733.5 48714.2 48694.8 48675.5 48656.4 48637.5 48617.3 48597.2 48577 48557 48537.2 48516.3 48495.3 48474.3 48453.4 48432.8 48411.2 48389.4 48367.7 48346 48324.6 48302.3 48279.8 48257.4 48234.9 48212.7 48189.7 48166.6 48143.5 48120.4 48097.5 48073.8 48050.1 48026.3 48002.6 47979 47954.7 47930.4 47906 47881.7 47857.4 47832.6 47807.7 47782.8 47757.9 47733 47707.6 47682.2 47656.7 47631.3 47605.9 47580 47554.1 47528.1 47502.2 47476.3 47461.9 47447.5 47433.1 47418.7 47402.5 47390.9 47379.2 47367.6 47355.9 47344.3 47317.4 47290.6 47263.8 47236.9 47210 47182.8 47155.5 47128.3 47101 47073.7 47046.1 47018.4 46990.8 46963.2 46935.5 46907.4 46879.4 46851.4 46823.4 46795.4 46767 46738.6 46710.3 46682 46653.5 46624.8 46596.2 46567.5 46538.8 46510.1 46481.1 46452.1 46423.1 46394.2 46365.1 46335.8 46306.6 46277.3 46248.1 46218.7 46189.2 46159.6 46130.1 46100.6 46071 46041.2 46011.4 45981.6 45951.9 45922 45892 45861.9 45831.9 45801.9 45771.8 45741.6 45711.3 45681.1 45650.8 45620.5 45590 45559.6 45529.1 45498.7 45468.1 45437.5 45406.8 45376.2 45345.5 45314.8 45283.9 45253.1 45222.2 45191.4 45160.4 45129.4 45098.4 45067.4 45036.4 45005.2 44974 44942.8 44911.6 44880.4 44849.1 44817.8 44786.4 44755 44723.7 44692.2 44660.7 44629.2 44597.6 44566.1 44534.5 44502.8 44471.1 44439.4 44407.7 44376 44344.1 44312.3 44280.5 44248.6 44216.7 44184.7 44152.8 44120.8 44088.8 44056.7 44024.6 43992.5 43960.4 43928.2 43896 43863.8 43831.5 43799.2 43767 43734.6 43702.2 43669.8 43637.4 43605 43572.5 43540 43507.5 43474.9 43442.4 43409.8 43377.1 43344.4 43311.8 43279.1 43246.3 43213.6 43180.7 43147.9 43115.1 43082.2 43049.3 43016.4 42983.4 42950.5 42917.5 42884.4 42851.3 42818.2 42785.2 42752 42718.8 42685.6 42652.4 42619.2 42585.9 42552.6 42519.3 42485.9 42452.5 42419.2 42385.7 42352.2 42318.7 42285.2 42251.7 42218.1 42184.5 42150.9 42117.2 42083.6 42049.8 42016.1 41982.3 41948.5 41914.7 41880.8 41846.9 41813 41779.1 41745.2 41711.2 41677.1 41643.1 41609 41574.9 41564.5 41554 41543.5 41533 41522.5 41498.8 41475.1 41451.4 41427.7 41404 41369.6 41335.3 41300.9 41266.6 41232.2 41197.7 41163.2 41128.7 41094.2 41059.7 41025.1 40990.4 40955.8 40921.1 40886.5 40851.7 40816.9 40782.1 40747.3 40712.4 40677.5 40642.5 40607.5 40572.6 40537.6 40502.5 40467.3 40432.2 40397.1 40361.9 40326.6 40291.3 40256 40220.7 40185.4 40149.9 40114.5 40079 40043.5 40008 39972.4 39936.7 39901.1 39865.4 39829.7 39793.9 39758.1 39722.3 39686.5 39650.6 39614.6 39578.6 39542.6 39506.6 39470.5 39434.4 39398.2 39362 39325.8 39289.5 39253.2 39216.8 39180.4 39144 39107.6 39071 39034.4 38997.8 38961.3 38924.6 38887.9 38851.1 38814.3 38777.5 38740.7 38703.7 38666.8 38629.8 38592.8 38555.7 38518.6 38481.4 38444.2 38407 38369.7 38332.4 38295 38257.6 38220.2 38182.7 38145.1 38107.5 38069.9 38032.3 37994.6 37956.8 37918.9 37881.1 37843.2 37805.3 37767.3 37729.3 37691.2 37653.1 37615 37576.8 37538.5 37500.2 37461.9 37423.5 37385 37346.5 37308 37269.4 37230.8 37192.1 37153.4 37114.6 37075.8 37037 36998.1 36959.1 36920 36881 36842 36802.8 36763.5 36724.3 36685 36645.7 36606.2 36566.7 36527.2 36487.7 36448.2 36408.5 36368.7 36329 36289.2 36249.4 36209.4 36169.4 36129.4 36089.4 36049.3 36009.1 35968.8 35928.5 35888.2 35847.9 35807.4 35766.9 35726.3 35685.8 35645.2 35604.4 35563.6 35522.8 35482 35441.1 35400.1 35359 35317.9 35276.8 35235.7 35194.4 35153 35111.7 35070.3 35028.8 34987.3 34945.7 34904 34862.3 34820.6 34778.7 34736.9 34694.9 34653 34610.9 34568.8 34526.6 34484.4 34442.1 34399.8 34357.4 34314.9 34272.4 34229.9 34187.3 34144.5 34101.8 34058.9 34016.1 33973.2 33930.2 33887.1 33844 33800.8 33757.6 33714.3 33670.9 33627.5 33584 33540.6 33496.9 33453.2 33409.5 33365.7 33321.9 33278 33234 33190 33145.9 33101.7 33057.5 33013.2 32968.8 32924.4 32880 32835.4 32790.8 32746.1 32701.4 32656.6 32611.7 32566.8 32521.8 32476.7 32431.6 32386.4 32341.1 32295.8 32250.4 32205 32159.4 32113.9 32068.2 32022.5 31976.7 31930.8 31884.9 31838.9 31792.9 31746.8 31700.6 31654.3 31608 31561.6 31515.2 31468.6 31422 31375.3 31328.6 31281.8 31234.9 31188 31140.9 31093.9 31046.8 30999.5 30952.2 30904.8 30857.4 30810 30762.3 30714.7 30667 30619.2 30571.4 30523.4 30475.4 30427.3 30379.2 30331 30282.7 30234.3 30185.9 30137.4 30088.9 30040.2 29991.4 29942.7 29893.8 29844.9 29795.8 29746.7 29697.6 29648.3 29599.1 29549.6 29500.2 29450.7 29401 29351.4 29301.6 29251.8 29201.9 29151.9 29101.9 29051.7 29001.5 28951.2 28900.8 28850.4 28799.8 28749.2 28698.6 28647.8 28597.1 28546.1 28495.1 28444 28392.9 28341.7 28290.4 28239 28187.5 28136 28084.4 28032.7 27980.9 27929 27877.1 27825.2 27773 27720.8 27668.5 27616.2 27563.9 27511.3 27458.7 27406 27353.2 27300.5 27247.5 27194.5 27141.4 27088.2 27035.1 26981.7 26928.2 26874.7 26821.2 26767.6 26713.8 26659.9 26606 26552 26498 26443.8 26389.5 26335.2 26280.8 26226.4 26171.7 26117.1 26062.3 26007.6 25952.8 25897.7 25842.6 25787.5 25732.4 25677.2 25621.8 25566.4 25511 25455.5 25400 25344.3 25288.6 25232.9 25177.2 25121.5 25065.5 25009.6 24953.8 24898 24842.2 24786.2 24730.4 24674.6 24618.9 24563.2 24507.4 24452.1 24396.9 24341.7 24286.9 24232.2 24177.1 24122.1 24067 24011.6 23957 23908.2 23859.5 23810.8 23766.6 23716.7 23651.3 23585.9 23520.3 23446.6 23399.2 23370.7 23342.4 23314.5 23301.8 23294.9 23288.1 23281.3 23274.4 23271.8 23267.5 23258.9 23250.3 23241.8 23231.9 23207.4 23182.7 23157.8 23132.7 23093.7 23018.7 22949.7 22880.8 22812 22754.8 22703.1 22646.7 22590.2 22533.7 22471.3 22403.5 22335.3 22267.2 22199 22130.5 22059 21985.7 21912.4 21839.1 21763.7 21685.4 21605.5 21525.6 21445.7 21364.3 21279.9 21193.7 21107.5 21021.2 20933.2 20842.1 20749.1 20656 20562.9 20468 20369.9 20269.5 20169.1 20068.6 19966.2 19860.2 19751.8 19643.4 19534.9 19424.4 19309.9 19192.6 19075.2 18957.9 18838 18713.8 18586.8 18459.8 18332.6 18203 18068.8 17930.6 17792.2 17653.8 17511.8 17364.7 17214.7 17064.6 16914.5 16762 16603.9 16439 16273.9 16108.6 15937 15759 15580.6 15402.2 15223.8 15045.4 14860.4 14660.3 14459.7 14258.7 14043.3 13819.9 13606.7 13393.9 13181.4 12979.7 12770.4 12521.7 12271.6 12020.2 11730.7 11430.3 11175.5 10922.7 10671.6 10466.4 10253.4 9934.96 9611.03 9280.46 8847.45 8398.13 8087.59 7789.52 7507.01 7361.48 7210.02 6808.47 6363.64 5849.18 5099.16 4320.2 3792.6 3410.82 3258.22 3323.6 3389.55 3362.26 2782.04 1390.61 0