/*--------------------------------*- C++ -*----------------------------------*\
  =========                 |
  \\      /  F ield         | OpenFOAM: The Open Source CFD Toolbox
   \\    /   O peration     | Website:  https://openfoam.org
    \\  /    A nd           | Version:  8
     \\/     M anipulation  |
\*---------------------------------------------------------------------------*/
FoamFile
{
    version     2.0;
    format      ascii;
    class       volScalarField;
    location    "900";
    object      nu;
}
// * * * * * * * * * * * * * * * * * * * * * * * * * * * * * * * * * * * * * //

dimensions      [0 2 -1 0 0 0 0];

internalField   nonuniform List<scalar> 
6300
(
1.680663513
1.696871226
1.564739327
1.40770418
1.254034086
1.11336189
0.9890428763
0.8814758134
0.7894338351
0.7109888478
0.6440872454
0.5868330668
0.5375903559
0.4949946506
0.4579266716
0.4254747118
0.3968973017
0.3715904759
0.3490606
0.3289024864
0.3107820098
0.2944224033
0.2795933513
0.2661016404
0.2537796548
0.2424537253
0.2318015949
0.2206856674
0.2041629666
0.1619595693
1.405740392
1.420277683
1.373580241
1.284355531
1.172721419
1.056077792
0.9460875611
0.8481009414
0.7631252113
0.6901453999
0.627540718
0.573686152
0.5271454825
0.4867079749
0.45137303
0.4203203243
0.3928786771
0.3684982666
0.3467272487
0.3271927682
0.3095857111
0.2936485539
0.2791654929
0.2659536297
0.2538511329
0.2426833709
0.2321182326
0.2210067313
0.2043645671
0.1615228408
1.310711741
1.318118678
1.288239397
1.222297867
1.130234803
1.026451155
0.9240972966
0.8308592123
0.7492246985
0.6788198051
0.6182695004
0.5660675846
0.52085992
0.481501198
0.4470434158
0.4167078791
0.3898560071
0.3659633926
0.3445980209
0.3254025457
0.3080800354
0.2923825786
0.2781020039
0.2650614843
0.2531038499
0.2420579343
0.2315959144
0.220569059
0.2039131617
0.1607389439
1.246622829
1.245212397
1.220229432
1.166898738
1.088572011
0.9956661498
0.9006605999
0.8122998766
0.7341679802
0.6664879269
0.6081367439
0.5577256813
0.5139781693
0.4758115951
0.4423300238
0.4127972107
0.3866086043
0.3632668254
0.34236127
0.3235515416
0.3065541763
0.2911319786
0.2770852984
0.2642440009
0.2524559342
0.2415533899
0.231209389
0.2202584682
0.2035395982
0.1600482882
1.194379855
1.187130589
1.164049385
1.118568819
1.050310349
0.9664475266
0.8781257482
0.7943950578
0.7196054309
0.6545149517
0.5982565699
0.5495599144
0.5072203777
0.4702114298
0.4376838172
0.4089398384
0.3834062454
0.3606108118
0.3401630257
0.3217385201
0.3050666014
0.2899202264
0.2761077704
0.2634653227
0.2518453419
0.2410829865
0.2308497613
0.2199586158
0.2031587075
0.1593759965
1.147787344
1.137119789
1.115290735
1.075333085
1.01484711
0.9386302926
0.8564008701
0.7770806384
0.7055091698
0.6429009865
0.5886425362
0.5415866976
0.500600189
0.4647091301
0.4331072783
0.405132391
0.3802401464
0.3579816832
0.3379852561
0.3199415407
0.3035918647
0.2887187847
0.2751382925
0.2626924462
0.2512382239
0.24061348
0.2304871948
0.2196491589
0.2027626263
0.1587172469
1.104277228
1.091989474
1.071483651
1.035879545
0.9816941374
0.9120515645
0.835381717
0.7602595399
0.6918019662
0.6315942728
0.5792632637
0.5337879869
0.4941074415
0.4592988266
0.4285965968
0.4013717752
0.3771071591
0.3553758273
0.3358237152
0.3181557166
0.3021245757
0.2875220091
0.2741713336
0.2619204252
0.2506307096
0.2401425577
0.2301217775
0.219333872
0.2023571744
0.1580716179
1.062821323
1.050231598
1.031310661
0.9994323616
0.9505526909
0.8866396001
0.8150411891
0.7438962382
0.6784462992
0.6205651202
0.5700985638
0.5261509598
0.4877341534
0.4539754708
0.4241483522
0.3976553793
0.3740049886
0.3527910028
0.3336761181
0.3163787295
0.3006624754
0.2863278468
0.2732052339
0.2611481704
0.2500224229
0.2396706608
0.2297549464
0.2190151875
0.2019447439
0.1574380318
1.022988291
1.011032204
0.9939676545
0.9654566525
0.9211857198
0.8623314235
0.7953652986
0.7279736489
0.6654192885
0.6097922041
0.5611319536
0.5186637912
0.4814720069
0.4487331462
0.4197582089
0.3939798799
0.3709309538
0.3502249628
0.3315405296
0.3146089245
0.2992041965
0.2851352657
0.2722393475
0.2603754752
0.2494136195
0.2391985313
0.2293879231
0.2186945296
0.2015263637
0.1568154632
0.9845829244
0.9739086736
0.9589226611
0.9335561437
0.8933880896
0.8390563155
0.7763343233
0.7124772595
0.6527029156
0.5992577588
0.5523487774
0.5113153678
0.4753128525
0.4435659127
0.4154218267
0.3903420801
0.3678826874
0.3476759546
0.329415684
0.3128454397
0.2977492466
0.2839441244
0.2712738848
0.2596028939
0.2488051837
0.2387273438
0.2290220398
0.2183730395
0.2011027326
0.1562032791
0.9475127772
0.9385588359
0.9258104507
0.9034320859
0.8669847987
0.8167414297
0.7579236433
0.6973931238
0.6402826108
0.5889474152
0.5437368583
0.5040962558
0.4692496806
0.4384686722
0.411135543
0.3867393843
0.3648583879
0.3451427753
0.3273008511
0.3110879378
0.2962976222
0.2827547263
0.2703094294
0.2588312671
0.2481981774
0.2382583003
0.2286584572
0.21805152
0.2006743197
0.1556010982
0.9117303807
0.9047828555
0.8943712327
0.8748555481
0.8418279901
0.795316065
0.7401054458
0.6827069463
0.6281458432
0.5788492516
0.5352860175
0.4969984808
0.4632765374
0.4334371132
0.4068963007
0.3831696862
0.3618566658
0.3426245878
0.3251956217
0.3093363589
0.2948495602
0.2815675617
0.2693466983
0.2580615061
0.247593653
0.2377924997
0.2282981211
0.2177305236
0.2002414848
0.1550087316
0.8772067183
0.8724406801
0.8644136869
0.8476480714
0.8177933094
0.7747141309
0.7228505459
0.6684040151
0.6162813193
0.5689531022
0.5269876109
0.4900152381
0.4573883282
0.4284675494
0.402701519
0.379631242
0.358876422
0.3401207856
0.3230997796
0.3075907936
0.2934054115
0.2803832029
0.2683864484
0.2572945122
0.2469926011
0.2373309142
0.2279418009
0.2174104449
0.1998045595
0.1544261311
0.843919119
0.8414281561
0.8357920674
0.821668067
0.7947760857
0.7548752701
0.7061297866
0.6544694077
0.604678574
0.5592500824
0.5188341913
0.4831406506
0.4515806435
0.4235567909
0.398548978
0.3761225818
0.3559167594
0.3376309164
0.3210132197
0.3058514197
0.2919655814
0.2792022428
0.2674294282
0.256531148
0.2463959342
0.2368744009
0.2275901295
0.2170915881
0.1993638827
0.1538533585
0.8118458307
0.8116632812
0.8083915891
0.7968010601
0.7726877994
0.7357450439
0.6899148729
0.6408882643
0.5933277493
0.549732262
0.5108192414
0.4763695904
0.4458496314
0.4187020566
0.394436747
0.372642441
0.3529769262
0.3351546293
0.3189359069
0.3041184559
0.2905304956
0.2780252756
0.2664763598
0.255772223
0.2458044882
0.2364237179
0.2272436437
0.2167742074
0.1989198217
0.1532905804
0.7809636974
0.78307808
0.7821189929
0.7729527349
0.7514529999
0.717274618
0.6741788649
0.627645983
0.5822194828
0.5403924401
0.5029369653
0.4696975256
0.4401918884
0.413900889
0.3903631273
0.3691897154
0.3500562862
0.3326916507
0.3168678554
0.3023921452
0.2891005802
0.2768528781
0.2655279336
0.2550184977
0.2452190323
0.2359795494
0.2269028159
0.2164585424
0.1984727882
0.1527380294
0.7512473064
0.755613742
0.756896337
0.7500439557
0.7310068215
0.6994202454
0.6588963991
0.6147283804
0.571344803
0.5312239789
0.4951821417
0.4631204072
0.4346043825
0.4091511018
0.3863266099
0.3657634353
0.3471542882
0.3302417623
0.3148091099
0.3006727439
0.2876762612
0.2756856073
0.2645848061
0.2542706879
0.2446402827
0.2355425245
0.2265680792
0.2161448342
0.198023236
0.1521960177
0.7226688813
0.7292176694
0.7326568327
0.7280071776
0.711292934
0.6821426754
0.6440437571
0.6021217843
0.5606951132
0.5222206914
0.4875500098
0.4566345813
0.4290843882
0.404450735
0.382325851
0.3623627425
0.3442704569
0.3278047912
0.3127597376
0.298960512
0.2862579559
0.2745240042
0.2636476065
0.253529473
0.2440689167
0.2351132348
0.2262398454
0.2158333418
0.1975716729
0.1516649145
0.6951984757
0.7038416574
0.7093420371
0.706783871
0.6922619729
0.6654065952
0.6295988357
0.5898130895
0.5502621712
0.5133767627
0.4800361776
0.4502367167
0.4236294353
0.3997980178
0.3783596402
0.3589868699
0.3414043782
0.3253806021
0.3107198285
0.2972557172
0.2848460739
0.2733685909
0.262716942
0.2527955066
0.243505583
0.2346922504
0.2259185209
0.2155243548
0.1971186583
0.1511451433
0.6688043103
0.6794407704
0.6868999398
0.6863226134
0.673870291
0.6491801197
0.6155410816
0.5777897839
0.5400380531
0.5046866907
0.4726365641
0.4439237464
0.4182372657
0.3951913424
0.3744268857
0.3556351334
0.3385556934
0.3229690924
0.3086894851
0.2955586319
0.2834410223
0.2722198797
0.2617934034
0.2520694251
0.2429509162
0.2342801314
0.2256045183
0.2152181958
0.1966648086
0.1506371883
0.6434531603
0.6559726306
0.6652835968
0.6665776891
0.6560789662
0.6334343362
0.60185139
0.5660399677
0.5300151634
0.4961452339
0.465347348
0.4376928301
0.4129058024
0.3906292362
0.3705265949
0.3523069231
0.3357240906
0.3205701899
0.3066688279
0.2938695307
0.2820432049
0.2710783777
0.2608775735
0.2513518572
0.2424055462
0.23387744
0.2252982673
0.2149152339
0.1962107933
0.1501415827
0.6191107378
0.6333969647
0.6444501758
0.6475080708
0.6388530395
0.6181429294
0.588511978
0.5545523342
0.52018622
0.4877474043
0.4581649158
0.4315413197
0.4076331221
0.3861103463
0.3666578649
0.349001686
0.3329092997
0.3181838505
0.3046579959
0.2921887002
0.280653028
0.2699445903
0.2599700342
0.2506434327
0.2418701047
0.23348475
0.2250002213
0.214615883
0.1957573412
0.1496589191
0.5957420391
0.6116753321
0.6243602563
0.6290766015
0.6221608907
0.6032818494
0.5755063053
0.5433161451
0.5105442406
0.4794884293
0.4510858473
0.4254667257
0.4024174332
0.3816334225
0.362819869
0.3457189308
0.3301110899
0.3158100586
0.3026571423
0.2905164387
0.2792709087
0.2688190309
0.2590713742
0.2499447899
0.241345238
0.2331026512
0.2247108657
0.2143206115
0.1953052433
0.1491898411
0.5733116828
0.590770925
0.6049773083
0.611249404
0.6059737542
0.5888290256
0.5628189481
0.5323212283
0.5010825281
0.471363739
0.4441068936
0.4194667027
0.3972570588
0.3771973071
0.3590118505
0.3424582167
0.3273292751
0.3134488255
0.3006664438
0.2888530597
0.2778972733
0.2677022238
0.2581821964
0.2492565829
0.2408316129
0.2327317619
0.2244307222
0.214029947
0.1948553547
0.1487350442
0.5517841772
0.5706484474
0.5862673137
0.5939953923
0.5902653231
0.5747641413
0.5504355
0.5215579381
0.4917946728
0.4633689473
0.4372249516
0.4135390295
0.3921504273
0.3728009211
0.355233119
0.3392191536
0.3245637047
0.3111001938
0.2986861047
0.2871988957
0.2765325717
0.2665947131
0.2573031238
0.2485794914
0.2403299212
0.2323727328
0.2241603577
0.2137444772
0.1944085937
0.1482952905
0.5311241695
0.5512740385
0.5681984529
0.5772859122
0.5750114302
0.5610684121
0.5383425
0.5110171187
0.4826745349
0.4554998454
0.4304370588
0.4076815929
0.3870960629
0.3684432646
0.351483043
0.3360014018
0.3218142696
0.30876424
0.2967163558
0.2855543108
0.2751772775
0.2654970718
0.2564348109
0.2479142238
0.2398408927
0.232026252
0.2239003883
0.2134648566
0.1939659514
0.1478713989
0.5112966692
0.53261519
0.5507408715
0.5610944189
0.560189776
0.5477244362
0.5265273316
0.5006900839
0.4737162366
0.4477523872
0.4237403802
0.4018923929
0.3820925722
0.3641234128
0.3477610553
0.3328046771
0.319080905
0.3064410856
0.294757464
0.2839197002
0.2738318977
0.2644099052
0.2555779453
0.2472615289
0.2393652955
0.2316930551
0.2236514865
0.2131918146
0.1935284928
0.1474642483
0.4922671981
0.5146407087
0.5338664848
0.5453962448
0.5457797062
0.5347160355
0.5149781488
0.4905685971
0.4649141413
0.4401226927
0.4171321965
0.3961695256
0.3771386478
0.3598405095
0.3440666512
0.3296287478
0.3163635992
0.3041308921
0.2928097442
0.2822955017
0.2724969834
0.2633338607
0.25473326
0.2466222019
0.2389039464
0.2313739299
0.223414386
0.2129261552
0.1930973574
0.1470747947
0.4740019527
0.4973206786
0.5175488166
0.5301683861
0.5317620349
0.5220281222
0.5036838204
0.4806448261
0.4562628532
0.4326070363
0.4106099098
0.3905111836
0.3722330651
0.3555937761
0.3403993914
0.3264734439
0.3136623971
0.3018338775
0.2908735577
0.280682209
0.2711731351
0.2622696416
0.2539015418
0.2459970902
0.2384577176
0.2310697218
0.223189887
0.2126687653
0.192673769
0.1467040563
0.4564679213
0.4806263989
0.5017628634
0.5153893326
0.5181188758
0.509646599
0.4926338576
0.4709113211
0.4477572042
0.4252018352
0.4041710333
0.3849156574
0.3673746876
0.3513825116
0.3367589126
0.3233386662
0.3109774124
0.299550329
0.2889493329
0.2790803722
0.269861016
0.2612180078
0.2530836359
0.2453871042
0.2380275442
0.2307813415
0.2229788658
0.2124206207
0.1922590393
0.1463531352
0.4396329567
0.4645303612
0.4864849724
0.5010389143
0.5048335145
0.4975582501
0.481818362
0.4613610004
0.4393922481
0.4179036585
0.3978131908
0.379381336
0.3625624692
0.3472061005
0.333144937
0.3202243963
0.3083088346
0.2972806079
0.2870375756
0.2774906173
0.2685613615
0.2601797933
0.2522804627
0.2447932249
0.2376144303
0.2305097727
0.2227822781
0.2121827904
0.1918545694
0.1460232147
0.4234658606
0.4490062092
0.4716927466
0.4870981798
0.4918902827
0.4857506615
0.4712279821
0.45198711
0.4311632462
0.4107092214
0.3915341316
0.3739067116
0.3577954628
0.3430640233
0.3295572798
0.3171307138
0.3056569489
0.2950251674
0.2851388806
0.2759136612
0.2672749959
0.2591559176
0.2514930215
0.2442165118
0.2372194589
0.2302560784
0.2226011682
0.2119564446
0.1914618595
0.1457155588
0.4079364326
0.4340286878
0.4573649349
0.4735492777
0.4792744619
0.4742121385
0.460853857
0.44278322
0.423065661
0.4036153803
0.3853317246
0.3684903933
0.3530728357
0.3389558764
0.3259958696
0.3140578079
0.3030221567
0.2927845732
0.2832539511
0.2743503246
0.2660028423
0.2581473952
0.2507224065
0.2436581141
0.2368438005
0.2300214088
0.2224366733
0.2117428574
0.191082512
0.1454315349
0.3930154854
0.4195736069
0.4434813536
0.460375356
0.4669721823
0.4629316411
0.4506875788
0.433743195
0.415095163
0.3966191501
0.3792039683
0.3631311152
0.3483938811
0.3348813865
0.3224607697
0.311006006
0.3004049906
0.2905595259
0.2813836201
0.2728015527
0.2647459433
0.2571553547
0.2499698186
0.243119282
0.23648872
0.2298070082
0.2222900322
0.2115434163
0.1907182393
0.1451725998
0.3786748648
0.4056177959
0.4300228162
0.4475604739
0.4549703458
0.4518987275
0.4407211585
0.4248611786
0.4072476098
0.389717702
0.3731490096
0.3578277591
0.3437580441
0.3308404361
0.3189522019
0.3079757981
0.2978061454
0.2883508827
0.2795288747
0.2712684381
0.2635054811
0.2561810544
0.2492365781
0.2426013777
0.2361555873
0.2296142247
0.2221625932
0.2113596287
0.1903708679
0.1449403246
0.3648874551
0.3921390497
0.4169710412
0.4350895111
0.4432565483
0.4411034844
0.4309469907
0.4161315873
0.3995190654
0.3829083748
0.3671651583
0.3525793779
0.3391649505
0.3268330966
0.3154705858
0.3049678691
0.2952265147
0.2861596922
0.2776908848
0.2697522458
0.2622827973
0.2552259003
0.2485241408
0.2421058872
0.2358458885
0.2294445169
0.2220558172
0.211193123
0.1900423425
0.1447363897
0.3516271533
0.3791160821
0.4043085878
0.4229480967
0.4318190109
0.4305364837
0.4213578233
0.4075490954
0.3919058007
0.3761886995
0.3612509169
0.3473852274
0.3346144436
0.3228596696
0.3120165758
0.3019831463
0.2926672263
0.2839872329
0.275871037
0.2682544421
0.2610794194
0.254291468
0.2478341155
0.2416344317
0.2355612315
0.229299461
0.2219712868
0.211045659
0.1897347355
0.1445625914
0.3388688522
0.3665284711
0.392018787
0.4111225357
0.4206465158
0.4201887371
0.4119467312
0.3991086249
0.3844043018
0.3695564182
0.355405019
0.342244812
0.3301066341
0.3189207377
0.3085911172
0.2990228466
0.2901296924
0.2818350549
0.274070976
0.2667767333
0.2598970914
0.2533795257
0.2471682806
0.2411887845
0.2353033594
0.2291807561
0.2219107092
0.2109191292
0.1894502474
0.1444208594
0.3265883948
0.3543565972
0.3800856667
0.399599732
0.409728341
0.4100516567
0.4027071076
0.3908053633
0.3770113005
0.3630095257
0.3496264747
0.3371579414
0.3256419635
0.3150172302
0.3051955141
0.2960885373
0.2876156723
0.2797050378
0.2722926491
0.2653211008
0.2587378056
0.2524920589
0.2465286036
0.240770881
0.2350741565
0.2290902313
0.2218759196
0.2108155598
0.1891912129
0.1443132534
0.3147625273
0.342581585
0.3684938874
0.388367131
0.3990542135
0.4001170055
0.3936326399
0.3826347701
0.3697238015
0.3565463258
0.3439146368
0.3321248088
0.3212212862
0.3111505108
0.3018315041
0.2931822254
0.2851273411
0.2775994512
0.2705383645
0.2638898492
0.2576038375
0.2516312982
0.2459172618
0.2403828288
0.2348756537
0.2290298478
0.2218688819
0.210737114
0.1889601016
0.1442419665
0.3033688421
0.3311852253
0.357228661
0.3774126408
0.3886142503
0.3903768861
0.384717305
0.3745926009
0.3625391451
0.3501655012
0.3382692943
0.3271460971
0.3168459789
0.3073224856
0.2985013691
0.2903064435
0.2826673792
0.2755210313
0.2688108526
0.2624856591
0.2564977866
0.2507997483
0.2453366572
0.2400269228
0.2347100342
0.2290016953
0.2218916852
0.2106860856
0.1887595179
0.1442093481
0.2923856815
0.3201498994
0.3462756851
0.3667245763
0.3783989145
0.3808237094
0.3759554084
0.3666749567
0.3554550841
0.3438662272
0.3326907996
0.3222231088
0.3125180774
0.3035357353
0.2952080667
0.287464376
0.2802390713
0.2734730738
0.2671133439
0.2611116399
0.2554226212
0.2500002196
0.2447894371
0.239705649
0.2345796316
0.2290079859
0.2219465348
0.2106648943
0.1885921983
0.1442178848
0.281792061
0.3094584925
0.3356210524
0.3562915859
0.3683989715
0.3714501885
0.3673415976
0.3588783775
0.3484699006
0.3376483202
0.327180244
0.317357949
0.3082404652
0.299793695
0.2919553886
0.2846600027
0.2778464396
0.271459534
0.2654496458
0.2597714047
0.2543817229
0.2492358551
0.2442785085
0.2394216909
0.234486922
0.2290510446
0.2220357327
0.2106760671
0.1884610029
0.1442702258
0.2715675511
0.2990942812
0.3252511605
0.3461025867
0.358605461
0.3622493692
0.358870944
0.3511999624
0.3415825934
0.3315124501
0.3217396866
0.3125537729
0.3040171129
0.2961008835
0.288748168
0.2818982746
0.2754943918
0.269485156
0.2638242433
0.2584691325
0.2533789376
0.2485101615
0.2438070491
0.2391779193
0.2344345072
0.22913328
0.2221616569
0.2107222206
0.1883689082
0.1443691685
0.2616921284
0.2890408108
0.315152614
0.3361467027
0.3490096873
0.3532146774
0.350539086
0.3436375786
0.3347931438
0.325460451
0.3163724898
0.307815117
0.299853388
0.2924631865
0.2855925361
0.2791853333
0.2731889026
0.2675556073
0.2622424169
0.2572096496
0.252418625
0.2478270354
0.2433785152
0.2389773837
0.2344250894
0.2292571463
0.2223267162
0.210806022
0.1883189772
0.144517665
0.252145979
0.2792817338
0.3053121031
0.3264132069
0.3396032444
0.3443400544
0.3423424427
0.336190189
0.3281029111
0.3194957641
0.3110837762
0.303148346
0.2957564772
0.2888882344
0.282496242
0.2765287798
0.2709372301
0.2656776514
0.2607103516
0.2559985231
0.251505714
0.2471907896
0.2429966373
0.2388232915
0.2344614288
0.2294250957
0.2225332942
0.210930139
0.1883143387
0.1447188241
0.2429093077
0.2698006224
0.2957162858
0.3168914938
0.3303781163
0.335620184
0.3342786112
0.3288583563
0.3215152189
0.3136240698
0.3058810565
0.2985622527
0.2917359302
0.2853858788
0.2794690509
0.2739380019
0.2687481643
0.2638593487
0.2592352885
0.2548421458
0.2506457659
0.2466061784
0.2426654212
0.2387189685
0.2345462847
0.2296394952
0.2227836628
0.2110971672
0.1883581373
0.1449758922
0.2339618217
0.2605806567
0.2863516211
0.3075710981
0.3213268989
0.3270509483
0.3263470152
0.3216450467
0.3150362663
0.3078542253
0.3007751425
0.2940688923
0.2878043953
0.281968806
0.2765232561
0.2714245797
0.2666323515
0.262110291
0.2578257104
0.2537478792
0.2498450506
0.2460784403
0.2423891462
0.2386678326
0.2346823514
0.2299025343
0.2230798741
0.2113095259
0.1884534675
0.1452922604
0.2252828188
0.251604458
0.2772042759
0.2984418229
0.3124432265
0.3186301633
0.3185499012
0.3145568353
0.3086764172
0.3021995485
0.2957813524
0.2896846605
0.2839785377
0.2786533028
0.2736742824
0.2690027558
0.264602661
0.2604418778
0.2564915291
0.252724193
0.2491106495
0.2456133499
0.2421723743
0.2386733516
0.2348721658
0.2302160928
0.2234236036
0.2115693046
0.1886032686
0.1456714177
0.2168487657
0.242853059
0.2682598907
0.2894941551
0.3037227774
0.3103590977
0.3108942574
0.3076060324
0.3024523837
0.2966799058
0.2909214076
0.2854319385
0.2802804213
0.27546039
0.2709416112
0.266690177
0.262674775
0.258867802
0.2552444971
0.2517809814
0.248450707
0.2452174102
0.2420200787
0.2387390988
0.2351180918
0.2305816482
0.2238159867
0.2118780808
0.1888101932
0.1461169553
0.2086372939
0.2343069721
0.2595040129
0.2807199797
0.2951646065
0.3022444235
0.303394213
0.300813286
0.2963897754
0.2913240434
0.2862254143
0.2813406973
0.276738751
0.2724167379
0.2683494514
0.2645083907
0.26086756
0.257404333
0.2540984269
0.2509297505
0.2478745673
0.244897934
0.241937662
0.2388686996
0.2354221756
0.2310000296
0.2242572895
0.2122365429
0.1890762717
0.1466323274
0.2006105629
0.2259403863
0.2509214942
0.2721150653
0.2867756591
0.2943039836
0.2960774066
0.294214025
0.2905292162
0.286175108
0.2817366859
0.2774526173
0.2733923646
0.2695576547
0.2659293017
0.2624850895
0.2592050682
0.2560721261
0.2530708294
0.2501851005
0.2473941131
0.2446642327
0.2419319735
0.2390666539
0.2357867507
0.2314717787
0.2247470166
0.2126444043
0.1894028355
0.1472211485
0.1927548579
0.2177344139
0.2425006937
0.2636810687
0.2785730004
0.2865697239
0.2889882046
0.2878613401
0.2849284272
0.2812917124
0.2775118179
0.2738203309
0.2702888738
0.2669253614
0.2637180678
0.2606522066
0.2577146981
0.2548944942
0.2521813222
0.2495632618
0.2470224118
0.2445263444
0.2420101016
0.2393371578
0.2362132384
0.2319958831
0.2252825257
0.2130988896
0.1897888501
0.1478851025
0.1849564951
0.2096366144
0.2342310041
0.255441447
0.2706082908
0.2791152222
0.2822153335
0.28185219
0.2796862889
0.2767696699
0.2736402221
0.2705250615
0.2675007467
0.2645838037
0.2617718353
0.2590587892
0.2564392556
0.2539086835
0.2514621317
0.2490918295
0.2467826656
0.2445032006
0.2421867241
0.2396905945
0.2367077257
0.2325743399
0.2258624787
0.2135971206
0.190233093
0.1486282231
0.1773191165
0.2016691687
0.2261270226
0.2474346093
0.2629513534
0.2720366575
0.2758707821
0.2763032841
0.274915297
0.2727114512
0.2702115233
0.2676430406
0.2650916786
0.2625856824
0.2601340137
0.2577405136
0.2554079811
0.2531385029
0.2509323602
0.2487856868
0.2466858379
0.2446019721
0.242465226
0.2401264746
0.2372657621
0.2331988166
0.2264752195
0.2141256049
0.190722438
0.1494387133
0.1692725154
0.1936531797
0.2182341434
0.2398404118
0.2558569425
0.2656227291
0.2702502353
0.2714998225
0.2708797156
0.2693555995
0.2674378802
0.2653618755
0.2632276748
0.2610785131
0.2589363982
0.256815703
0.2547274396
0.2526800105
0.2506784463
0.2487222327
0.2468006121
0.2448827121
0.2428968655
0.2406868782
0.2379196736
0.2338912998
0.2271322967
0.2146873389
0.1912590474
0.1503334237
0.1618481404
0.1859500194
0.2106915521
0.2327736832
0.2494748397
0.2600478901
0.2655214182
0.267577367
0.2676708679
0.2667481331
0.2653253315
0.2636554241
0.2618582146
0.2599940516
0.2580982481
0.2561950551
0.2543027106
0.2524348897
0.2506003959
0.2488011846
0.2470275517
0.2452478314
0.2433868273
0.2412807169
0.2385831559
0.234571369
0.227759764
0.2152129727
0.1917680405
0.1512106036
0.1516955429
0.1778562274
0.2041488776
0.2274475971
0.2451409742
0.2565715885
0.2628031319
0.2655091384
0.2661341546
0.2656308606
0.2645349318
0.2631222094
0.2615325248
0.2598413639
0.258094663
0.2563239301
0.2545523322
0.2527968889
0.2510685257
0.2493701755
0.2476917525
0.2459993104
0.2442124838
0.2421580694
0.2394749029
0.2354211516
0.2284987366
0.2158054066
0.1923448611
0.1522340838
0.1460142297
0.1715926114
0.1986512648
0.2232404115
0.2420947317
0.2543542476
0.2611350482
0.2642002223
0.2650599195
0.26471276
0.2637272988
0.2624014128
0.2608882776
0.2592707033
0.2575982876
0.255904259
0.2542124769
0.2525401187
0.2508978544
0.2492878621
0.2476985746
0.2460933277
0.2443870826
0.2423990778
0.2397569944
0.2357055287
0.2287388627
0.2159775109
0.1925320639
0.152769236
0.1275173407
0.1672671624
0.2015810884
0.2283992438
0.2471970774
0.2586477892
0.2645625366
0.2669477596
0.2673386788
0.2666873144
0.2655112665
0.2640708817
0.2624946029
0.260849274
0.2591739916
0.2574947859
0.2558302571
0.25419335
0.2525908449
0.2510207144
0.2494660947
0.2478828551
0.2461749006
0.24414511
0.2413985258
0.2371543857
0.2298983111
0.2168203576
0.1932841049
0.1540425078
0.1234482834
0.1635190245
0.1987254364
0.2260795135
0.2452317983
0.257039021
0.2632707266
0.2658949478
0.2664658269
0.2659660192
0.2649310187
0.2636270953
0.2621830248
0.260664594
0.259110112
0.2575452969
0.2559887737
0.2544535822
0.2529464953
0.2514652033
0.2499920714
0.2484814647
0.2468346735
0.2448504557
0.2421278711
0.2378781998
0.2305785308
0.2174181168
0.1937934521
0.1546006034
0.1335575497
0.1604204152
0.1887553907
0.2145551672
0.2347048691
0.2482786329
0.2562046789
0.2601662218
0.2617173837
0.2619355186
0.2614475107
0.2605809234
0.2595000644
0.258290763
0.2570034558
0.2556721735
0.2543219692
0.2529712466
0.2516314854
0.2503046873
0.2489773609
0.2476081027
0.2461027581
0.2442650265
0.2416985779
0.2376155744
0.2304792004
0.2174245554
0.1937416299
0.1543806863
0.1342109079
0.1600712196
0.1867135584
0.2111037799
0.2306415321
0.2442768013
0.2525865651
0.2569957596
0.2589526107
0.2595195884
0.2593379592
0.2587499427
0.2579282154
0.2569622555
0.2559039484
0.2547881081
0.2536405365
0.2524805049
0.2513204381
0.2501632563
0.2489962059
0.2477781854
0.2464144065
0.244705959
0.2422498274
0.2382434665
0.2311211458
0.2179735021
0.1940785228
0.1546122636
0.1365401186
0.1602886652
0.1851738853
0.2082735909
0.2271687643
0.2407227055
0.2492597393
0.2539906719
0.2562583221
0.2570987096
0.2571591387
0.256792974
0.2561802119
0.2554135815
0.254545967
0.2536123672
0.2526386703
0.2516443793
0.2506423276
0.2496359589
0.2486130453
0.2475328145
0.2463001962
0.2447145108
0.2423675985
0.2384446051
0.2313539398
0.218142321
0.1940575636
0.1544566095
0.1375008928
0.1604060673
0.1844296101
0.20677152
0.2251684563
0.2385321343
0.2470990125
0.2519605375
0.254383134
0.2553745898
0.2555792496
0.2553542317
0.2548823331
0.2542569491
0.2535303509
0.2527365247
0.2519004108
0.2510407776
0.2501699251
0.2492908715
0.2483909118
0.2474284728
0.246306845
0.2448218752
0.2425581897
0.2386865897
0.2315891406
0.2182740053
0.1939811594
0.1542896148
0.1382949588
0.1605037575
0.1839081688
0.2057386968
0.2237826691
0.2369841199
0.2455376563
0.2504628605
0.2529746944
0.2540597835
0.254358989
0.2542311461
0.2538603063
0.2533396518
0.2527203646
0.2520351226
0.25130768
0.250555836
0.2497911011
0.2490157774
0.2482163455
0.2473500365
0.2463180544
0.2449123181
0.2427099298
0.2388675342
0.2317423627
0.2183086801
0.1938084317
0.1540484575
0.1388008306
0.160506995
0.1834798829
0.204987592
0.2228128752
0.235906861
0.2444423864
0.2493983494
0.2519591332
0.2530990992
0.2534578019
0.2533955499
0.2530969582
0.2526544272
0.2521176545
0.2515177225
0.250876965
0.2502119918
0.2495332966
0.2488422118
0.2481241129
0.247334698
0.2463727111
0.2450257933
0.2428633625
0.2390283332
0.2318550215
0.2182892885
0.1935869862
0.1537920137
0.1391746219
0.1604551204
0.1830825454
0.2043712783
0.2220706991
0.2351118128
0.2436458265
0.2486250452
0.2512163262
0.2523892592
0.2527853096
0.2527673334
0.2525207484
0.2521371391
0.2516646056
0.2511325004
0.2505615973
0.2499671736
0.2493585555
0.2487359465
0.2480834481
0.2473550575
0.2464469244
0.245142382
0.243003364
0.2391597984
0.2319254421
0.218222303
0.1933281421
0.1535261029
0.1394463988
0.1603588592
0.1826932345
0.2038257533
0.2214640002
0.2344987619
0.2430537291
0.2480602158
0.2506752162
0.251869021
0.2522880707
0.2522993049
0.2520896759
0.2517502775
0.251327727
0.2508496511
0.2503352068
0.249798253
0.2492468462
0.2486799529
0.2480802949
0.2474000851
0.2465328427
0.2452576288
0.2431293515
0.2392659584
0.2319622637
0.2181201705
0.1930460038
0.1532623868
0.1396531348
0.1602346779
0.18230607
0.2033170523
0.2209357528
0.2339997823
0.2425977374
0.2476406864
0.2502795107
0.2514886681
0.2519219859
0.2519520145
0.2517681655
0.2514615762
0.2510776649
0.2506424612
0.2501735414
0.2496833295
0.2491785702
0.2486569435
0.2480997503
0.2474573927
0.246620808
0.2453650603
0.2432383923
0.2393475802
0.2319699888
0.2179901952
0.192748029
0.1530041006
0.139813209
0.1600923597
0.1819204032
0.2028286986
0.2204537922
0.2335731526
0.2422332721
0.2473234358
0.2499897781
0.251212857
0.2516555738
0.2516973816
0.2515310705
0.2512484318
0.2508940615
0.250492605
0.2500601682
0.249607786
0.2491409032
0.2486559095
0.2481326849
0.2475198811
0.2467059676
0.2454622082
0.2433305883
0.2394073831
0.2319536275
0.217838665
0.1924397682
0.1527532959
0.139940213
0.1599393953
0.1815378093
0.2023528133
0.2199993637
0.2331922429
0.2419301109
0.2470779611
0.2497771313
0.2510151339
0.2514649994
0.2515140717
0.2513593293
0.2510938143
0.2507617076
0.2503865312
0.249983078
0.249561087
0.249124756
0.2486692282
0.2481730162
0.2475830879
0.2467855783
0.2455481672
0.2434069246
0.2394481381
0.2319173194
0.2176701894
0.192124764
0.1525104106
0.1400429122
0.1597807654
0.181160119
0.2018858852
0.2195617046
0.2328402414
0.2416680133
0.246882941
0.2496207309
0.2508759999
0.2513324799
0.2513861089
0.2512387139
0.2509851247
0.2506695032
0.2503145237
0.2499338464
0.2495360399
0.249124145
0.248692128
0.2482172077
0.2476447614
0.2468587226
0.2456233801
0.2434691598
0.2394727332
0.2318646611
0.2174883433
0.1918054866
0.1522754226
0.1401275329
0.1596199388
0.1807889659
0.2014265715
0.2191346709
0.2325064506
0.2414332994
0.2467233358
0.2495053939
0.2507809088
0.2512445457
0.2513013041
0.2511583608
0.2509127939
0.2506091088
0.2502693976
0.2499063851
0.2495276061
0.2491350501
0.2487215964
0.2482632578
0.2477039223
0.2469254475
0.2456888923
0.2435192431
0.239483808
0.2317986038
0.2172958407
0.1914836561
0.1520480507
0.1401984869
0.1594592659
0.1804255888
0.2009745482
0.2187148214
0.2321840644
0.2412166857
0.2465885005
0.2494200588
0.2507190108
0.2511909417
0.2512502703
0.2511098835
0.2508694625
0.2505741708
0.2502457693
0.2498962371
0.2495322194
0.2491547684
0.2487557744
0.2483101386
0.2477603584
0.2469863283
0.2457460085
0.2435590902
0.2394836818
0.231721555
0.2170947754
0.1911605269
0.1518279638
0.1402590073
0.1593003511
0.1800708496
0.200529936
0.2183002857
0.2318687367
0.2410118569
0.2464710815
0.2493565309
0.2506819576
0.2511637748
0.2512257466
0.2510867475
0.2508493822
0.2505597492
0.2502395011
0.2499000458
0.2495472791
0.2491814307
0.2487935019
0.2483573742
0.2478142477
0.2470421517
0.2457960488
0.2435904332
0.2394743136
0.2316354503
0.216886779