/*--------------------------------*- C++ -*----------------------------------*\
  =========                 |
  \\      /  F ield         | OpenFOAM: The Open Source CFD Toolbox
   \\    /   O peration     | Website:  https://openfoam.org
    \\  /    A nd           | Version:  8
     \\/     M anipulation  |
\*---------------------------------------------------------------------------*/
FoamFile
{
    version     2.0;
    format      ascii;
    class       volScalarField;
    location    "900";
    object      p;
}
// * * * * * * * * * * * * * * * * * * * * * * * * * * * * * * * * * * * * * //

dimensions      [0 2 -2 0 0 0 0];

internalField   nonuniform List<scalar> 
6300
(
3.391055757
3.689503662
3.88250332
4.13270086
4.485010914
4.881049241
5.268221793
5.618380037
5.922065914
6.178525093
6.389085499
6.55479978
6.676190974
6.753474959
6.786742864
6.77605686
6.721494725
6.623171829
6.481253006
6.295968805
6.067638305
5.796710469
5.483849163
5.130083344
4.736916263
4.306405274
3.844424583
3.370091367
2.874150996
2.143638602
7.266541058
6.839699898
6.151986692
5.574610606
5.219478392
5.045936916
4.972332899
4.93353806
4.897658888
4.856791972
4.812896047
4.769734048
4.730384234
4.697019072
4.671142133
4.653802641
4.645736561
4.647460224
4.659325535
4.681555617
4.714253594
4.757396656
4.810803687
4.874000567
4.945611188
5.022837618
5.107258501
5.213909761
5.289777256
5.035651003
11.09116256
10.81843434
10.25568044
9.716515371
9.35045691
9.176104317
9.133641478
9.148227028
9.171558717
9.185610266
9.188642178
9.183679165
9.173859367
9.161521357
9.148324947
9.135459854
9.123786232
9.113917516
9.106268622
9.101072662
9.098371661
9.097985804
9.099462901
9.101913543
9.103426129
9.101267352
9.09929181
9.112601327
9.073962367
8.729889765
14.97733089
14.7556602
14.24354487
13.69971898
13.28432289
13.05552286
12.97970193
12.98363917
13.00859942
13.02738382
13.03411464
13.03086902
13.020909
13.00685321
12.99058869
12.9734696
12.9564709
12.94028277
12.92536469
12.91196102
12.90010176
12.88957577
12.8798952
12.87015407
12.8585709
12.84315012
12.82910508
12.83034232
12.77688462
12.43309877
18.86582656
18.65105209
18.15532014
17.60502701
17.15266967
16.87510786
16.76026845
16.74243011
16.75810802
16.7728905
16.77662899
16.76999654
16.75612294
16.73780703
16.71712682
16.69559098
16.67429418
16.65401999
16.63529758
16.61842712
16.60348008
16.59027874
16.57837013
16.56689474
16.55421748
16.53872034
16.5257032
16.52739025
16.4752209
16.14819376
22.78618055
22.56035108
22.0669097
21.51155689
21.03377954
20.71784414
20.56753974
20.52634318
20.5297977
20.53827875
20.537601
20.52670517
20.50832169
20.48529205
20.45982198
20.43354379
20.40766006
20.38304517
20.36030191
20.33979108
20.32162829
20.30567257
20.29149634
20.27827531
20.26447274
20.24867351
20.23606475
20.23791586
20.18826969
19.87850658
26.73781012
26.48744277
25.98332822
25.41860039
24.91939833
24.57119605
24.3883495
24.32292129
24.3116289
24.31142211
24.30461625
24.28831613
24.26465925
24.23640309
24.20581104
24.17459706
24.14404548
24.11510415
24.08843908
24.06446273
24.04333234
24.02493829
24.00888303
23.99438462
23.9800028
23.96448925
23.95301792
23.9564675
23.91144682
23.61909459
30.71268012
30.42884245
29.90447214
29.32536372
28.80562482
28.42882104
28.21587034
28.12600442
28.0981466
28.08721361
28.07266178
28.04981455
28.02010148
27.98609907
27.95006261
27.91374821
27.8784947
27.84530389
27.81489494
27.7877226
27.76398325
27.7436025
27.72622194
27.7111161
27.69694911
27.68264288
27.67344558
27.68003581
27.64114311
27.36587704
34.70466035
34.3819268
33.83081168
33.23301249
32.69236855
32.28920944
32.04823322
31.93427772
31.8887884
31.8656323
31.84202449
31.81165333
31.77519254
31.73496899
31.69318098
31.65159181
31.61156983
31.57415623
31.54010836
31.50992255
31.48383304
31.46180518
31.44352824
31.42834472
31.41502858
31.40268494
31.39667239
31.40748387
31.37550587
31.11673272
38.70922447
38.34432791
37.76200401
37.14193988
36.5794089
36.15112458
35.88371698
35.74620734
35.68247561
35.64598245
35.61223335
35.57347336
35.52962371
35.48271862
35.43486398
35.38780327
35.3429158
35.30126806
35.26364991
35.23059173
35.20236804
35.17898688
35.16019396
35.14540589
35.13351213
35.12380107
35.12173966
35.13756647
35.11298762
34.87019635
42.7230086
42.31399357
41.69733956
41.05210446
40.46646313
40.01360003
39.72089546
39.56036969
39.47805237
39.42738399
39.38259116
39.33467617
39.28284202
39.22881018
39.17457062
39.12182755
39.07195693
39.02604079
38.9848955
38.94908399
38.91891804
38.89445617
38.87550136
38.86154705
38.85159888
38.84511949
38.84765311
38.86909532
38.85227079
38.62511046
46.74350781
46.28922088
45.63601081
44.96325074
44.35322138
43.87587976
43.55862456
43.37553641
43.27443446
43.20894657
43.15235285
43.09460175
43.03423032
42.97264471
42.9117029
42.85306002
42.79807735
42.74784447
42.70319842
42.66473448
42.63280278
42.60751019
42.58872131
42.57600787
42.5684838
42.56576877
42.57343393
42.60096156
42.59220508
42.38048397
50.76879642
50.26857688
49.57718137
48.87496977
48.23930601
47.73729736
47.39592431
47.19060742
47.07058574
46.98976292
46.92072122
46.85252481
46.7831036
46.71355584
46.6456014
46.58083673
46.52060346
46.46599297
46.417861
46.37683147
46.34329466
46.31740644
46.29908976
46.2879902
46.28332518
46.28484512
46.29809665
46.33210235
46.3317326
46.13540364
54.79732691
54.25081863
53.52000854
52.78674291
52.12425998
51.59720798
51.23190624
51.00456591
50.86550343
50.76891365
50.68685877
50.60766359
50.52871332
50.45081175
50.3755403
50.30443178
50.23880423
50.17974847
50.12813524
50.08461657
50.04962123
50.02335157
50.00579078
49.99665244
49.99524246
50.00141595
50.02064721
50.06148176
50.06984882
49.88899179
58.82779022
58.23482709
57.46364257
56.69796225
56.00754681
55.45495568
55.06572468
54.81644448
54.65820408
54.5454616
54.44988646
54.35918345
54.27025217
54.18361979
54.10073182
54.02305707
53.95188675
53.88830967
53.83321065
53.78726812
53.75094763
53.72449717
53.70795474
53.70109568
53.70330192
53.7145062
53.74007314
53.78806919
53.80556347
53.64036457
62.85902855
62.21956327
61.40722738
60.60795022
59.88855263
59.30984624
58.89653841
58.62529121
58.44770589
58.31844933
58.20888594
58.10619849
58.00685557
57.91112779
57.82032956
57.73586532
57.65900062
57.59081983
57.53222082
57.48390766
57.4463813
57.41993407
57.40465243
57.40036653
57.40652174
57.42310382
57.45533231
57.51082085
57.53788004
57.38861765
66.88996731
66.20402482
65.34988403
64.51595824
63.76658524
63.1611347
62.7234882
62.43015024
62.2330132
62.08688855
61.96289277
61.84776683
61.73759698
61.63241658
61.53341545
61.44193769
61.35922186
61.28634832
61.22422734
61.17358702
61.134962
61.10868601
61.09489019
61.09345024
61.10386291
61.12614545
61.165349
61.22867207
61.26578456
61.13281554
70.91957341
70.18722109
69.29070586
68.4211756
67.64087814
67.0080163
66.54567824
66.23004054
66.01310099
65.84974915
65.71089064
65.58288642
65.46148409
65.34649968
65.23900582
65.14028774
65.05155834
64.97389557
64.90822094
64.8552865
64.81565833
64.78970666
64.77760242
64.7792637
64.7942253
64.82251559
64.86900181
64.94051764
64.98821736
64.8719674
74.94682341
74.16814996
73.22874394
72.32272029
71.51058191
70.84961291
70.362157
70.02393716
69.7869021
69.60595181
69.4518031
69.31048923
69.1774543
69.05231595
68.93603737
68.8298487
68.73493946
68.65238414
68.58311585
68.52790828
68.4873588
68.46187279
68.45165569
68.45665741
68.4764431
68.51103865
68.56511593
68.64520874
68.70407972
68.60503456
78.97067747
78.14577749
77.16299857
76.21964129
75.3747709
74.68497469
74.17191253
73.81076163
73.55329401
73.35435725
73.18448886
73.02943447
72.88436876
72.74872636
72.62336808
72.50947318
72.40821009
72.32065077
72.24773942
72.19027232
72.14887352
72.12398021
72.11583068
72.12440146
72.14927884
72.19047229
72.25245635
72.34153356
72.4122055
72.33090744
82.99006127
82.11902484
81.0924098
80.11090862
79.23242893
78.51306425
77.97385649
77.58936814
77.31108817
77.0937542
76.90772969
76.73850188
76.58100368
76.43450295
76.29976609
76.17792489
76.07012743
75.9774439
75.90083172
75.84110739
75.79892154
75.77474092
75.76883026
75.78118803
75.81141755
75.85950033
75.92971686
76.02821697
76.11136416
76.04840717
87.00385137
86.0867537
85.01584604
83.9954112
83.08245396
82.33275784
81.76681683
81.35853262
81.05902014
80.82285425
80.62022412
80.43638323
80.26604608
80.10832782
79.96390674
79.83387081
79.71935113
79.62141701
79.54103786
79.47904921
79.43612876
79.41276889
79.40925952
79.42561845
79.46145777
79.51672608
79.59551387
79.7039061
79.80025002
79.75627475
91.01086042
90.04775521
88.93209649
87.87194723
86.92364457
86.14283393
85.54953068
85.11694183
84.79573759
84.54027981
84.320579
84.12167577
83.93808523
83.7687817
83.61436352
83.47587739
83.35443885
83.25111913
83.16689813
83.10263175
83.0590216
83.03658515
83.03563435
83.05620244
83.09790756
83.16066052
83.24837821
83.36716347
83.47746768
83.45315925
95.00982432
94.00073893
92.83986128
91.7392187
90.75469885
89.94196691
89.32063257
88.86318601
88.51979044
88.24455321
88.00729931
87.79287057
87.59560114
87.4143364
87.2495986
87.10239873
86.97383783
86.86498839
86.77684301
86.71027823
86.66601616
86.64459964
86.64636001
86.67134496
86.71917572
86.78972139
86.88674212
87.01645813
87.14153076
87.13761747
98.99939666
97.94432284
96.73774234
95.59582154
94.57420275
93.72872011
93.07864673
92.59574584
92.22962146
91.9340887
91.67877902
91.44834858
91.23696239
91.04334863
90.86796046
90.71177326
90.57587743
90.46134873
90.36919097
90.30029876
90.25541858
90.23511365
90.23973551
90.26934377
90.32356075
90.4022187
90.5089382
90.6501549
90.79084751
90.80809989
102.9781311
101.8770242
100.6242349
99.44024056
98.38062663
97.5015361
96.8219787
96.31298421
95.92355576
95.60718157
95.33329073
95.08636247
94.86040873
94.6540464
94.467665
94.30220944
94.15875961
94.0383928
93.94212758
93.87087638
93.82540659
93.80630326
93.81393503
93.8483749
93.90924797
93.99634603
94.11318248
94.26650818
94.42371561
94.46294142
106.944475
105.7972465
104.4977157
103.2708345
102.172311
101.2587278
100.5489024
100.0131331
99.5997871
99.261994
98.96897388
98.70503533
98.46404699
98.24452409
98.04679651
97.87178061
97.72054785
97.59418031
97.49370763
97.42006156
97.37402901
97.3562164
97.36700961
97.40649333
97.47429593
97.57017692
97.69757221
97.86364855
98.03830606
98.10035417
110.8967634
109.7032746
108.356437
107.0858342
105.9474614
104.9984688
104.2575527
103.6942855
103.2563692
102.8965484
102.5838243
102.3023416
102.0458349
101.8127252
101.603288
101.4184128
101.2591633
101.1266269
101.0218447
100.945764
100.8991949
100.8827616
100.896868
100.9416116
101.016627
101.1216483
101.2600668
101.4395767
101.6326647
101.7184197
114.8331974
113.5932589
112.1985105
110.8833226
109.7041339
108.7187806
107.9459093
107.3543784
106.8911998
106.5087085
106.1756793
105.8760972
105.6035718
105.3564358
105.1349138
104.9398716
104.7723657
104.6334874
104.5242906
104.445739
104.3986597
104.3836976
104.4012736
104.4514998
104.53402
104.6485539
104.7984881
104.9921506
105.2046874
105.3150691
118.7518448
117.4652079
116.0219023
114.661233
113.4402263
112.4175217
111.6117884
110.9911832
110.5020091
110.0961708
109.7422079
109.423948
109.1348841
108.8732681
108.6392763
108.4337527
108.257747
108.1123534
107.9986371
107.9175776
107.870019
107.856625
107.8778333
107.9337721
108.0240998
108.1485337
108.3105013
108.5190727
108.7521185
108.8880829
122.6506248
121.3169752
119.8244139
118.4173265
117.1534622
116.0923742
115.2528247
114.6022887
114.0863431
113.6564428
113.2808857
112.9433478
112.6372094
112.3606469
112.1137914
111.897466
111.7127147
111.5606343
111.4422978
111.3586987
111.3106967
111.2989726
111.3239816
111.3858704
111.4843193
111.6190603
111.7936069
112.0178821
112.2725349
112.4350692
126.5272916
125.1462471
123.6036761
122.1491874
120.8413785
119.7408251
118.8664555
118.1850825
117.6415461
117.1868332
116.7889922
116.4315496
116.1077812
115.8157923
115.5556725
115.3282237
115.1344819
114.9755458
114.8524945
114.7663308
114.7179296
114.7079866
114.7369745
114.8050637
114.9119611
115.0574315
115.2451278
115.4859376
115.7633328
115.9534548
130.3794278
128.9505276
127.3571272
125.8541994
124.5013072
123.3601541
122.4499071
121.736739
121.1647425
120.6844242
120.2635775
119.8855806
119.5436102
119.2357049
118.9619148
118.7230205
118.5200487
118.3540957
118.2262441
118.1375042
118.0887597
118.0807205
118.1138777
118.1884254
118.3041087
118.460749
118.6621953
118.9204083
119.221716
119.4404699
134.2044299
132.7271289
131.0820047
129.5295374
128.1303619
126.9474113
126.0001677
125.2541897
124.6528162
124.1460584
123.7014503
123.3022252
122.9414648
122.6171451
122.3292777
122.0786203
121.8661883
121.6930712
121.5603497
121.4690351
121.4200183
121.41402
121.4515473
121.5328249
121.6576485
121.8259186
122.0417393
122.318256
122.6446761
122.8931307
137.99949
136.4731489
134.7753209
133.1721372
131.7254069
130.4993942
129.5139696
128.7341056
128.1023832
127.5683084
127.0991502
126.6779988
126.2978468
125.9566104
125.654262
125.3915354
125.1694285
124.9890188
124.8513773
124.7575123
124.7083142
124.70451
124.7466255
124.8349189
124.9692472
125.1496213
125.3804673
125.6762195
126.0289783
126.3082225
141.7615823
140.1854565
138.4338484
136.7786878
135.2830497
134.0126292
132.9877636
132.1728694
131.5097684
130.9474523
130.4529209
130.0091246
129.6089699
129.2503147
128.9330924
128.6580072
128.4260333
128.2382279
128.0956459
127.9992803
127.9500159
127.9485825
127.9955211
128.0911291
128.2353414
128.4283123
128.6748555
128.9908034
129.3711502
129.6822837
145.4874501
143.860677
142.0540969
140.3455935
138.7995966
137.4833321
136.4176828
135.5665422
134.870972
134.2794417
133.7586811
133.2915025
132.8707288
132.4941617
132.1616907
131.8739846
131.6319858
131.4367193
131.2892103
131.19043
131.1412462
131.1423835
131.1943989
131.2976356
131.4521241
131.6581973
131.9211283
132.2582529
132.6674472
133.0115782
149.1735781
147.4951597
145.6322848
143.8689555
142.2710375
140.907386
139.7995142
138.9108273
138.18163
137.5598653
137.0119882
136.5206757
136.078671
135.6837161
135.3356519
135.0351033
134.7829651
134.5802183
134.4278453
134.3267774
134.2778557
134.2817955
134.3391651
134.4503598
134.6155252
134.8352153
135.1152415
135.4745404
135.9138472
136.2920818
152.8161859
151.0849695
149.1643207
147.3445364
145.6929987
144.2802959
143.1286541
142.2010299
141.4369771
140.7839054
140.2079971
139.6917947
139.2279602
138.8141733
138.4502174
138.1366574
137.8743275
137.6641441
137.5070268
137.4038537
137.3554242
137.3624309
137.4254537
137.5449503
137.721203
137.9550327
138.2528663
138.6353398
139.1060174
139.5194473
156.4111931
154.6258455
152.6457583
150.7677208
149.0607058
147.5971408
146.4000587
145.4320055
144.6317919
143.9462947
143.3414201
142.799576
142.3133423
141.8803285
141.5002465
141.1735827
140.9010868
140.683589
140.5219232
140.4168906
140.3692325
140.3796111
140.4486144
140.5767697
140.7645231
141.0130121
141.3293642
141.7360106
142.2392954
142.6889867
159.9542066
158.1131825
156.0717716
154.1334735
152.3689312
150.8525227
149.6081835
148.5980982
147.7603402
147.0412523
146.4064649
145.8382497
145.3290985
144.8765364
144.4801832
144.140423
143.8578924
143.633302
143.4673731
143.3608068
143.3142644
143.3283641
143.4036999
143.5408792
143.7405428
144.0042029
144.3397714
144.7715616
145.3086494
145.7956289
163.4404971
161.5419925
159.4371005
157.4362821
155.6119298
154.0404933
152.746915
151.6930666
150.8163
150.0624206
149.3967812
148.8015129
148.2690052
147.7966796
147.3840349
147.0313167
146.7390119
146.5076764
146.3378823
146.2301988
146.1851862
146.2034034
146.2854481
146.4320224
146.6439958
146.9233126
147.2787659
147.7366346
148.3086622
148.8338946
166.8649611
164.9068638
162.7360028
160.6700926
158.7833627
157.1544685
155.809477
154.7100002
153.7926804
153.0027873
152.3053893
151.6824646
151.126281
150.6341248
150.2053329
149.839967
149.5383164
149.3007364
149.1276087
149.019334
148.9763456
148.9991291
149.0882827
149.2446183
149.4692722
149.7646926
150.1406457
150.6254597
151.2334754
151.7978459
170.2221082
168.2019206
165.9621866
163.8282227
161.8761967
160.1871212
158.7883169
157.6411978
156.6817114
155.8545869
155.1245961
154.473544
153.8935413
153.3816907
152.937114
152.5596307
152.249271
152.0061334
151.8303589
151.7221439
151.681762
151.7096085
151.8062844
151.9727317
152.2103972
152.5223057
152.9192967
153.4318256
154.076756
154.6810397
173.5060224
171.4207616
169.1087259
166.9032546
164.8825765
163.1302403
161.674968
160.4780416
159.4747253
158.6091981
157.8459119
157.1664586
156.5627397
156.0316099
155.5718993
155.1831062
154.8649292
154.6171442
154.4395943
154.332225
154.2951244
154.328581
154.4331989
154.6100718
154.861009
155.1896939
155.6081453
156.1490204
156.8316354
157.4764717
176.7103459
174.5564059
172.1679596
169.8868976
167.7936626
165.974553
164.4598651
163.2108191
162.1620017
161.2570158
160.4599494
159.7521198
159.1251381
158.5755142
158.1016873
157.7027379
157.3779436
157.1266793
156.9484315
156.8428466
156.8097924
156.849441
156.9624042
157.1499582
157.4143291
157.7599465
158.2001181
158.7697789
159.4906355
160.1764863
179.8282166
177.6011754
175.1313222
172.7697657
170.5993727
168.7094576
167.1320868
165.8284916
164.7325681
163.787292
162.9563106
162.2205636
161.5712494
161.0044045
160.5179472
160.11042
159.7805745
159.5272978
159.3496517
159.2469401
159.2187848
159.265228
159.3869024
159.5852979
159.863119
160.2256385
160.6875678
161.2861994
162.0455811
162.7726866
182.8523685
180.5466957
177.9892423
175.541211
173.2881735
171.3227912
169.6791341
168.3185041
167.1740613
166.1880523
165.3235493
164.5609566
163.8908867
163.3087257
162.8117048
162.3976814
162.0647636
161.8112621
161.6357491
161.5371423
161.5147981
161.5686284
161.6992994
161.9085536
162.1996438
162.5787813
163.0621984
163.6896337
164.4874635
165.2557836
185.774716
183.3833733
180.7304923
178.1885694
175.8462793
173.8000528
172.0862212
170.6661803
169.4722318
168.44571
167.5488915
166.7614031
166.0730239
165.4782565
164.973444
164.5555955
164.2220493
163.9704518
163.7988308
163.7056884
163.6901025
163.7518601
163.8916877
164.1116239
164.4155345
164.8106689
165.314902
165.9705127
166.806239
167.6153668
188.5876813
186.1014194
183.3429895
180.6977952
178.2581841
176.1248926
174.3367776
172.8552668
171.6115551
170.5457375
169.6189403
168.8096553
168.1064944
167.5027845
166.9937416
166.575353
166.2440686
165.9967979
165.8309869
165.7447117
165.7367802
165.8068745
165.9558075
166.1859564
166.5018671
166.9119175
167.4357344
168.118246
168.9906602
169.8396851
191.2799439
188.6863972
185.8089665
183.0485258
180.5018716
178.2746521
176.4084374
174.8644181
173.572183
172.4700272
171.517379
170.6910905
169.9781699
169.3704241
168.8616943
168.4467806
168.1211547
167.8809516
167.7230341
167.6450707
167.6456265
167.7243096
167.8820583
168.1216299
168.4482999
168.8716459
169.4131362
170.1204607
171.0275019
171.9148447
193.8500484
191.1316605
188.1169912
185.2255526
182.5597197
180.2307833
178.2830297
176.6767687
175.3390796
174.2055535
173.2331093
172.3962811
171.6799482
171.0740264
170.5707544
170.1636333
169.847123
169.6166032
169.4684
169.3998282
169.4092629
169.4962869
169.6619969
169.9095587
170.2450063
170.6791446
171.2353193
171.9640599
172.9022246
173.8251383
196.2638159
193.3959985
190.2182682
187.1758002
184.377658
181.9409015
179.9117552
178.2481506
176.873017
175.7178094
174.7358102
173.8984099
173.1878094
172.5917235
172.1006605
171.7068196
171.4037238
171.1861046
171.0498609
170.9920551
171.0109552
171.1061718
171.2789942
171.5330067
171.874988
172.316937
172.8840267
173.6296503
174.5940431
175.5484463
198.5841268
195.5269893
192.1498852
188.9286707
185.9806375
183.428628
181.3190387
179.6047274
178.2018972
177.0358677
176.0548953
175.2263605
174.5293383
173.9491981
173.4747729
173.0971263
172.809045
172.6048105
172.4800708
172.4317732
172.4581734
172.5589692
172.7356592
172.9922229
173.3361091
173.7803663
174.3517534
175.1062342
176.0876896
177.0657835
200.5764838
197.2752019
193.6442201
190.2155782
187.1118841
184.4556916
182.2876355
180.5500105
179.1480859
177.9983862
177.0427468
176.2440046
175.5781122
175.0283996
174.582458
174.2306579
173.9654495
173.7809883
173.6729112
173.6382183
173.6752547
173.7838464
173.9656826
174.2250496
174.5699051
175.0140848
175.5855322
176.3423333
177.3320825
178.3246164
202.8602023
199.2003425
195.2384449
191.5539257
188.2710365
185.5063864
183.2864468
181.5353546
180.142653
179.0138346
178.0836996
177.3108039
176.6686422
176.1392809
175.7097921
175.3704538
175.1138326
174.9342837
174.8276603
174.791162
174.8233131
174.9241045
175.0954022
175.3417187
175.6713312
176.0984781
176.6514127
177.3884579
178.3595259
179.3424188
203.5143491
199.384542
194.9956328
191.0789584
187.7096733
184.9549251
182.8049277
181.1541357
179.871356
178.8504864
178.0210155
177.3396387
176.7796949
176.3238611
175.9600838
175.6795123
175.4754611
175.3428679
175.2779997
175.2783125
175.3424466
175.4703851
175.6638717
175.9271952
176.2683201
176.7010648
177.253033
177.9816374
178.9367634
179.8993697
207.6595147
202.6269433
197.6365214
193.383231
189.851799
187.0393306
184.8806249
183.2328533
181.9464924
180.9096013
180.0515425
179.3307568
178.722608
178.2115436
177.7868953
177.4408297
177.1673883
176.962018
176.8213471
176.7430991
176.7261238
176.7705809
176.8783742
177.0539358
177.3053564
177.6464263
178.103347
178.7276838
179.5641996
180.4282528
199.5449495
194.0040334
188.8121948
184.9424146
181.9857125
179.7613121
178.1562877
177.0104535
176.1725276
175.5388015
175.0491833
174.6709694
174.3859472
174.1829745
174.0543462
173.9941915
173.9978192
174.0614351
174.1820197
174.3572752
174.585639
174.8664074
175.200038
175.5887106
176.0370884
176.5539559
177.1589841
177.8954652
178.7916917
179.6343103
220.1173679
211.4167446
204.6843849
200.2045354
196.8810206
194.2930356
192.2715396
190.6533426
189.3015461
188.1287798
187.0863442
186.1474041
185.2959635
184.5212942
183.815454
183.1722553
182.5868542
182.0555574
181.5757372
181.1458155
180.765337
180.4351859
180.1580328
179.9391318
179.7874805
179.717697
179.755604
179.9508672
180.3620871
180.8888018
166.5307149
169.2226664
169.8217763
169.3043466
168.7048514
168.2993721
168.0900937
168.0274635
168.06121
168.1565882
168.2960471
168.4732558
168.6869978
168.9376451
169.225702
169.5513972
169.9146793
170.3153015
170.7529215
171.2271872
171.7378225
172.284757
172.8683182
173.4895322
174.1504405
174.8544579
175.6073914
176.4149518
177.2426091
177.8888115
180.7261764
182.787958
183.5855785
183.0504185
182.1082262
181.1861828
180.3949452
179.7426132
179.2042241
178.7500356
178.3582528
178.016252
177.7173882
177.4580307
177.2358905
177.04929
176.8968962
176.7776444
176.6907433
176.63571
176.6124468
176.6213731
176.6636275
176.7413531
176.8580173
177.0184712
177.2271947
177.480202
177.7473443
177.9594526
174.8813329
176.3322126
177.0668539
177.0370458
176.6401933
176.1464217
175.6859574
175.3039152
175.0005239
174.7610048
174.5716484
174.4239837
174.3136107
174.2382517
174.196499
174.1872516
174.2095279
174.2624322
174.3451754
174.4571082
174.5977619
174.7668989
174.9645488
175.1909811
175.4464881
175.7305926
176.0390995
176.3546684
176.6294483
176.7855835
175.5274244
176.5717893
177.2285941
177.3395842
177.1237655
176.766846
176.3833462
176.0304079
175.7255448
175.4672467
175.2495003
175.0676216
174.9189611
174.8020867
174.7160434
174.6599878
174.6330763
174.6344634
174.6633351
174.7189426
174.8006304
174.9078452
175.0400901
175.196755
175.3766901
175.5771079
175.7897976
175.990302
176.1269929
176.159191
174.9653818
175.6415152
176.0833835
176.1986811
176.0954954
175.8736766
175.6090432
175.3490488
175.1142409
174.9091803
174.7329264
174.5841565
174.4623198
174.3673323
174.299155
174.2575866
174.2422291
174.2525245
174.2878064
174.3473378
174.4303248
174.5358916
174.6629646
174.8099911
174.9743627
175.1511376
175.3290332
175.4798871
175.5519774
175.5211924
174.8518407
175.3106883
175.6138346
175.7009159
175.6411776
175.4926236
175.3026134
175.1053517
174.9186762
174.7490493
174.5982896
174.4673146
174.3571439
174.2687816
174.2029671
174.160074
174.1401274
174.1428701
174.1678255
174.2143395
174.2815857
174.3685167
174.4737126
174.5950445
174.7290419
174.8695514
175.003713
175.1021136
175.116176
175.0381204
174.6505628
174.9589847
175.1477687
175.189273
175.1389988
175.032641
174.8969637
174.7528783
174.6124421
174.4809105
174.3607332
174.253864
174.1622696
174.0877223
174.0315724
173.9946767
173.9774365
173.9798736
174.0017011
174.0423644
174.101041
174.1765781
174.267324
174.3707692
174.482903
174.5968806
174.6991785
174.7607552
174.7374752
174.6323766
174.4792389
174.6911728
174.8020219
174.8032633
174.7477391
174.6622306
174.5613469
174.4558199
174.351824
174.2521786
174.1587429
174.0736294
173.9991941
173.9376341
173.8906961
173.8595822
173.8449829
173.8471486
173.8659596
173.9009638
173.9513741
174.0160027
174.0930856
174.1799258
174.2722702
174.3630322
174.4386453
174.4711875
174.4211698
174.2997529
174.2993277
174.4460579
174.5012547
174.4686266
174.4017253
174.3248087
174.2458403
174.1683036
174.0932331
174.0206431
173.951135
173.8863843
173.8286995
173.7804052
173.7434433
173.7192261
173.7086417
173.7121127
173.7296556
173.7609154
173.8051593
173.8612117
173.9272798
174.0006162
174.0769327
174.1491829
174.2040837
174.2150812
174.1469637
174.0166582
174.1220197
174.2246359
174.2414072
174.1827615
174.1034855
174.0284149
173.9625043
173.9045087
173.8514424
173.8007051
173.7514235
173.7045213
173.6619769
173.6260186
173.5986167
173.5812755
173.5749958
173.5803169
173.5973595
173.6258562
173.6651421
173.7140879
173.7709405
173.8330062
173.8960974
173.9533547
173.991914
173.986563
173.9057946
173.7708223
173.9460518
174.0180734
174.0080873
173.929965
173.8392314
173.7625062
173.7038956
173.6592822
173.6227056
173.5893385
173.5568549
173.5253026
173.4961686
173.4714362
173.452981
173.4423012
173.4404419
173.4480074
173.465194
173.4918084
173.5272585
173.5704891
173.6198323
173.6727076
173.7250974
173.7703972
173.7961793
173.7784224
173.6887501
173.5516415
173.7734003
173.8239227
173.7954607
173.7032413
173.6028021
173.5228373
173.4678489
173.4321557
173.4077042
173.3878773
173.3690444
173.3503751
173.3328
173.3179714
173.3075911
173.3030797
173.3054703
173.3153926
173.3330907
173.3584337
173.3909029
173.429532
173.4727608
173.5181547
173.5618966
173.5976489
173.6133734
173.5860486
173.4899425
173.3521387
173.6045515
173.6397412
173.5985887
173.4964357
173.3881773
173.3044365
173.2507718
173.2208319
173.205156
173.1957403
173.187842
173.1798147
173.1720289
173.1657728
173.1625239
173.1635819
173.1699259
173.1821798
173.2006131
173.2251457
173.2553288
173.2902878
173.3285799
173.3679266
173.4047142
173.4328494
173.4406152
173.4058078
173.304957
173.1673051
173.4398909
173.4640413
173.4143053
173.3054145
173.191107
173.1036204
173.0498817
173.0234674
173.0140263
173.0125092
173.0132523
173.0138914
173.0142692
173.0153064
173.0182374
173.0242141
173.0341355
173.048596
173.0678738
173.0919265
173.1203694
173.152416
173.1867412
173.221217
173.2524181
173.2744595
173.2758703
173.2351168
173.1307008
172.993713
173.2794646
173.2956188
173.2402299
173.1270203
173.0082086
172.9172835
172.8626552
172.8382261
172.8331181
172.8374982
172.8449813
172.8525939
172.8596973
172.8668576
172.8750658
172.8853143
172.8984085
172.9148976
172.935055
172.9588646
172.9859973
173.0157473
173.0469004
173.0774655
173.1041813
173.1213307
173.1176202
173.0720722
172.9649495
172.8289588
173.1231894
173.1335423
173.0746111
172.9589067
172.8368929
172.7429621
172.6870246
172.6635231
172.6612989
172.6699927
172.6826702
172.6958379
172.7084238
172.7206668
172.733325
172.7472316
172.7630926
172.7814046
172.8024252
172.8261556
172.852312
172.8802619
172.9088866
172.9363168
172.9594293
172.9726333
172.9647564
172.9152937
172.806114
172.6713554
172.9708946
172.9770555
172.9161112
172.799283
172.6751444
172.5786874
172.5212601
172.4979403
172.4974943
172.5092784
172.5259178
172.5434679
172.5604775
172.5768948
172.5932631
172.6102652
172.6285063
172.6484261
172.6702607
172.6940211
172.7194596
172.7460046
172.7726195
172.7975387
172.8177515
172.8277567
172.8164585
172.763767
172.653043
172.5196959
172.8223807
172.8255413
172.7636953
172.6467687
172.5213918
172.4229122
172.3639265
172.3402327
172.340764
172.3547055
172.3743214
172.3952892
172.4158325
172.4356441
172.4550748
172.474667
172.4949306
172.5162469
172.5388267
172.5626839
172.5875994
172.6130511
172.6380722
172.6609806
172.678853
172.6862495
172.6721183
172.6167449
172.5048936
172.3731046
172.6774391
172.6784919
172.6165546
172.5002971
172.3744054
172.2743642
172.2138232
172.1893736
172.1903008
172.2056806
172.2274883
172.2510868
172.274424
172.2969694
172.3189026
172.3406396
172.362602
172.3851144
172.4083604
172.4323512
172.4568889
172.4814911
172.5052479
172.526544
172.5425229
172.54778
172.5312827
172.4736698
172.361039
172.2309338
172.5358717
172.5354904
172.4740547
172.3590428
172.2332175
172.1319888
172.0699438
172.0445179
172.0454157
172.0616767
172.0850518
172.110644
172.1361643
172.1608883
172.1848458
172.2083408
172.2317135
172.2552364
172.2790645
172.3032038
172.3274698
172.3514118
172.3741639
172.3941646
172.4086054
172.4120973
172.3936098
172.3341207
172.2210053
172.0926911
172.3974944
172.3961883
172.3356833
172.2223434
172.0970473
171.9949519
171.931487
171.904956
171.9055148
171.922228
171.9466772
171.9737483
172.0009496
172.02739
172.0529679
172.0778877
172.102418
172.1267824
172.1511086
172.1753949
172.1994652
172.2228924
172.2448442
172.2638001
172.276986
172.2790117
172.258839
172.1977763
172.0844287
171.9579945
172.2621383
172.2602935
172.2010271
172.089667
171.9652656
171.8625839
171.7978028
171.7700953
171.7700913
171.7869274
171.8120619
171.8401983
171.868671
171.8964442
171.9233026
171.9493635
171.9748315
171.9998866
172.0246303
172.0490511
172.0729783
172.0960005
172.1173122
172.135422
172.1475782
172.1483776
172.1267684
172.0643872
171.951024
171.8265444
172.1296524
172.1275612
172.0697482
171.9605855
171.8373637