/*--------------------------------*- C++ -*----------------------------------*\
  =========                 |
  \\      /  F ield         | OpenFOAM: The Open Source CFD Toolbox
   \\    /   O peration     | Website:  https://openfoam.org
    \\  /    A nd           | Version:  8
     \\/     M anipulation  |
\*---------------------------------------------------------------------------*/
FoamFile
{
    version     2.0;
    format      ascii;
    class       surfaceScalarField;
    location    "900";
    object      phi;
}
// * * * * * * * * * * * * * * * * * * * * * * * * * * * * * * * * * * * * * //

dimensions      [0 3 -1 0 0 0 0];

internalField   nonuniform List<scalar> 
12360
(
-2.099457517e-12
-3.679552698e-13
-5.955103394e-12
9.487688999e-12
-1.197499763e-11
3.015644073e-11
-2.037284485e-11
6.259530875e-11
-3.14292651e-11
1.087410905e-10
-4.543206831e-11
1.712611161e-10
-6.264853115e-11
2.535115086e-10
-8.329061417e-11
3.593660391e-10
-1.074792784e-10
4.930258523e-10
-1.352154557e-10
6.588856293e-10
-1.663598536e-10
8.614604133e-10
-2.006199248e-10
1.105347948e-09
-2.375413863e-10
1.395206314e-09
-2.765024474e-10
1.73573789e-09
-3.167097011e-10
2.131676685e-09
-3.571952595e-10
2.587778222e-09
-3.968149324e-10
3.108811511e-09
-4.342468775e-10
3.69955266e-09
-4.679915542e-10
4.364780049e-09
-4.963719147e-10
5.109270787e-09
-5.175347857e-10
5.93779678e-09
-5.294529218e-10
6.855122028e-09
-5.299303209e-10
7.865998611e-09
-5.166096436e-10
8.975163475e-09
-4.869892235e-10
1.018734905e-08
-4.38455976e-10
1.150738953e-08
-3.683608857e-10
1.294089782e-08
-2.741538404e-10
1.449816313e-08
-1.532462389e-10
1.621550808e-08
1.827852685e-08
-1.522518315e-12
1.154563056e-12
-5.72333896e-12
1.368850966e-11
-1.238244691e-11
3.68155487e-11
-2.162829889e-11
7.184116073e-11
-3.363427834e-11
1.2074707e-10
-4.860841011e-11
1.862352479e-10
-6.676702488e-11
2.716701234e-10
-8.829446719e-11
3.808934814e-10
-1.132968763e-10
5.180282614e-10
-1.417636753e-10
6.873524283e-10
-1.735431988e-10
8.932399367e-10
-2.083296415e-10
1.140134391e-09
-2.456561285e-10
1.432532801e-09
-2.848904855e-10
1.774972247e-09
-3.252323559e-10
2.172018555e-09
-3.657110464e-10
2.628256912e-09
-4.051841856e-10
3.14828465e-09
-4.423369912e-10
3.736705466e-09
-4.756822092e-10
4.398125267e-09
-5.035603821e-10
5.13714896e-09
-5.241415663e-10
5.958377965e-09
-5.354273894e-10
6.866407851e-09
-5.352543367e-10
7.865825558e-09
-5.212999462e-10
8.961209084e-09
-4.910928008e-10
1.01571419e-08
-4.420322532e-10
1.145832899e-08
-3.714272437e-10
1.287029281e-08
-2.764957962e-10
1.440323168e-08
-1.540641012e-10
1.609307638e-08
1.812446275e-08
-1.327986378e-12
2.482549447e-12
-5.310390745e-12
1.767091404e-11
-1.204571578e-11
4.355087375e-11
-2.163135174e-11
8.142679671e-11
-3.416037084e-11
1.332760891e-10
-4.974650481e-11
2.018213819e-10
-6.852786901e-11
2.904514876e-10
-9.063921327e-11
4.030048257e-10
-1.161623492e-10
5.435513974e-10
-1.450771852e-10
7.162672643e-10
-1.77228555e-10
9.253913066e-10
-2.12308874e-10
1.17521471e-09
-2.498499963e-10
1.470073923e-09
-2.89219094e-10
1.814341345e-09
-3.296160851e-10
2.212415546e-09
-3.700718776e-10
2.668712705e-09
-4.094472247e-10
3.187659997e-09
-4.464318364e-10
3.773690077e-09
-4.795445495e-10
4.43123798e-09
-5.071334191e-10
5.16473783e-09
-5.273768195e-10
5.978621365e-09
-5.382851e-10
6.877316132e-09
-5.377036705e-10
7.865244129e-09
-5.233179282e-10
8.946823342e-09
-4.926616385e-10
1.012648561e-08
-4.43134495e-10
1.140880184e-08
-3.720225485e-10
1.279918087e-08
-2.764895199e-10
1.430769866e-08
-1.53569485e-10
1.597015635e-08
1.797089326e-08
-1.260874505e-12
3.743423964e-12
-5.223760201e-12
2.163379975e-11
-1.209641151e-11
5.042352508e-11
-2.200931852e-11
9.133970373e-11
-3.503572516e-11
1.463024957e-10
-5.123548636e-11
2.180211431e-10
-7.068139283e-11
3.098973941e-10
-9.34511544e-11
4.257745873e-10
-1.195867326e-10
5.696869755e-10
-1.490434472e-10
7.45723979e-10
-1.816509244e-10
9.579987839e-10
-2.170913118e-10
1.210655097e-09
-2.548891548e-10
1.507871766e-09
-2.944066761e-10
1.853858866e-09
-3.34841167e-10
2.252850037e-09
-3.752233504e-10
2.709094888e-09
-4.144160559e-10
3.226852703e-09
-4.511140255e-10
3.810388047e-09
-4.83843289e-10
4.463967243e-09
-5.109620101e-10
5.191856551e-09
-5.306616288e-10
5.998320984e-09
-5.409687229e-10
6.887623226e-09
-5.397489428e-10
7.864024348e-09
-5.2471246e-10
8.931786859e-09
-4.934244486e-10
1.00951976e-08
-4.433198913e-10
1.135869729e-08
-3.717246059e-10
1.272758558e-08
-2.758814716e-10
1.421185552e-08
-1.53053766e-10
1.584732864e-08
1.78178395e-08
-1.260193968e-12
5.003617944e-12
-5.295843029e-12
2.566944882e-11
-1.234780279e-11
5.747548485e-11
-2.256970725e-11
1.015616082e-10
-3.603627012e-11
1.597690586e-10
-5.278232688e-11
2.347671999e-10
-7.283658433e-11
3.299516516e-10
-9.622779426e-11
4.491657972e-10
-1.229563449e-10
5.964155262e-10
-1.52947525e-10
7.757151591e-10
-1.860104092e-10
9.910616681e-10
-2.218128056e-10
1.246457494e-09
-2.598690923e-10
1.545928053e-09
-2.995346504e-10
1.893524424e-09
-3.40002998e-10
2.293318385e-09
-3.803040832e-10
2.749395973e-09
-4.193031528e-10
3.265851772e-09
-4.557002302e-10
3.846785124e-09
-4.880302427e-10
4.496297256e-09
-5.146637204e-10
5.218490029e-09
-5.338079628e-10
6.017465226e-09
-5.435101689e-10
6.897325432e-09
-5.416610883e-10
7.862175268e-09
-5.26001315e-10
8.916127086e-09
-4.941315238e-10
1.006332781e-08
-4.43526473e-10
1.130809224e-08
-3.715553021e-10
1.265561441e-08
-2.75529564e-10
1.411582978e-08
-1.528117713e-10
1.572461085e-08
1.766502773e-08
-1.300762142e-12
6.304380096e-12
-5.466968463e-12
2.983565515e-11
-1.273973664e-11
6.474825304e-11
-2.327873958e-11
1.121006112e-10
-3.71608685e-11
1.736511876e-10
-5.440911232e-11
2.520154437e-10
-7.502400881e-11
3.505665481e-10
-9.89962017e-11
4.731379902e-10
-1.262882066e-10
6.237075311e-10
-1.567944175e-10
8.0622137e-10
-1.903010156e-10
1.024568266e-09
-2.264592333e-10
1.282615711e-09
-2.647715458e-10
1.584240366e-09
-3.045852911e-10
1.93333817e-09
-3.450894611e-10
2.333822555e-09
-3.853128504e-10
2.789619363e-09
-4.241231132e-10
3.304662035e-09
-4.602261456e-10
3.882888157e-09
-4.9216636e-10
4.52823747e-09
-5.183274343e-10
5.244651103e-09
-5.369342233e-10
6.036072015e-09
-5.460552373e-10
6.906446446e-09
-5.43606998e-10
7.859727029e-09
-5.273604515e-10
8.89988054e-09
-4.949494869e-10
1.003091685e-08
-4.43884384e-10
1.125702713e-08
-3.715733804e-10
1.258330341e-08
-2.75377467e-10
1.401963387e-08
-1.527078804e-10
1.560194126e-08
1.751231985e-08
-1.361935697e-12
7.666315802e-12
-5.695263426e-12
3.416898289e-11
-1.322328821e-11
7.227627784e-11
-2.409722144e-11
1.229745444e-10
-3.839029132e-11
1.879442574e-10
-5.611750628e-11
2.697426587e-10
-7.726074004e-11
3.717097819e-10
-1.017817397e-10
4.976589898e-10
-1.296104576e-10
6.51536249e-10
-1.606118563e-10
8.372227687e-10
-1.94548756e-10
1.058505166e-09
-2.31054829e-10
1.319121784e-09
-2.696197592e-10
1.622805296e-09
-3.095821332e-10
1.973300544e-09
-3.501259433e-10
2.374366365e-09
-3.902785952e-10
2.829772015e-09
-4.289099633e-10
3.343293403e-09
-4.647318197e-10
3.918710013e-09
-4.962980989e-10
4.559803749e-09
-5.220059665e-10
5.270358971e-09
-5.400973062e-10
6.054163355e-09
-5.486618684e-10
6.915011008e-09
-5.456410304e-10
7.856706191e-09
-5.288337358e-10
8.883073245e-09
-4.959048759e-10
9.997987987e-09
-4.443962125e-10
1.120551847e-08
-3.717504179e-10
1.251065761e-08
-2.753668999e-10
1.392325035e-08
-1.526850286e-10
1.547925939e-08
1.735963482e-08
-1.432893109e-12
9.099208919e-12
-5.954660336e-12
3.869075013e-11
-1.376225176e-11
8.008386927e-11
-2.498844191e-11
1.342007346e-10
-3.969607882e-11
2.026518944e-10
-5.789159956e-11
2.879381795e-10
-7.954288334e-11
3.933610657e-10
-1.045893566e-10
5.22705463e-10
-1.32933442e-10
6.798803344e-10
-1.644131043e-10
8.687024311e-10
-1.987683796e-10
1.092860441e-09
-2.356151758e-10
1.35596858e-09
-2.744300154e-10
1.661620136e-09
-3.14542371e-10
2.013412899e-09
-3.551308873e-10
2.414954881e-09
-3.952213837e-10
2.869862511e-09
-4.336856507e-10
3.38175767e-09
-4.692410707e-10
3.954265433e-09
-5.004509867e-10
4.591013665e-09
-5.257252845e-10
5.295633269e-09
-5.433226449e-10
6.071760715e-09
-5.51352751e-10
6.923041114e-09
-5.477805808e-10
7.85313402e-09
-5.30431287e-10
8.865723951e-09
-4.969975147e-10
9.964554215e-09
-4.450507122e-10
1.115357167e-08
-3.720625167e-10
1.243766942e-08
-2.754640065e-10
1.382665184e-08
-1.52717831e-10
1.535651322e-08
1.720691699e-08
-1.508927834e-12
1.060813676e-11
-6.231881069e-12
4.341370337e-11
-1.433560703e-11
8.818759524e-11
-2.592827754e-11
1.457934051e-10
-4.105683703e-11
2.177804539e-10
-5.971690881e-11
3.065982513e-10
-8.186418213e-11
4.15508339e-10
-1.074199524e-10
5.482612333e-10
-1.362632671e-10
7.087236492e-10
-1.682076819e-10
9.006468458e-10
-2.029715168e-10
1.127624276e-09
-2.401531919e-10
1.393150255e-09
-2.792159838e-10
1.700682927e-09
-3.194800731e-10
2.053676989e-09
-3.601185814e-10
2.45559339e-09
-4.001553959e-10
2.909899326e-09
-4.384640038e-10
3.420066278e-09
-4.737670633e-10
3.989568493e-09
-5.046365674e-10
4.62188317e-09
-5.294950327e-10
5.320491734e-09
-5.466167772e-10
6.08888246e-09
-5.541305462e-10
6.930554883e-09
-5.500231657e-10
7.84902664e-09
-5.321443146e-10
8.8478451e-09
-4.982125347e-10
9.930622435e-09
-4.4582536e-10
1.110118449e-08
-3.724818839e-10
1.236432594e-08
-2.756413259e-10
1.372981128e-08
-1.527887605e-10
1.523366065e-08
1.705412823e-08
-1.588083602e-12
1.219622036e-11
-6.520530393e-12
4.834615016e-11
-1.493200051e-11
9.659906536e-11
-2.690240389e-11
1.577638085e-10
-4.245871513e-11
2.333367651e-10
-6.15832949e-11
3.25722831e-10
-8.421985029e-11
4.381448944e-10
-1.102740608e-10
5.743154438e-10
-1.396047458e-10
7.380543342e-10
-1.720034118e-10
9.330455119e-10
-2.071679466e-10
1.162788811e-09
-2.446797805e-10
1.430662089e-09
-2.839890677e-10
1.739992215e-09
-3.244066636e-10
2.094094585e-09
-3.650999508e-10
2.496286677e-09
-4.050907413e-10
2.949890116e-09
-4.432538042e-10
3.458229341e-09
-4.783167129e-10
4.024631402e-09
-5.088599141e-10
4.652426371e-09
-5.333173242e-10
5.344949144e-09
-5.499783435e-10
6.105543479e-09
-5.569896968e-10
6.937566237e-09
-5.523590049e-10
7.844395948e-09
-5.339584221e-10
8.829444517e-09
-4.995308068e-10
9.89619482e-09
-4.466980335e-10
1.104835172e-08
-3.729844844e-10
1.229061239e-08
-2.758774777e-10
1.363270428e-08
-1.528859741e-10
1.511066915e-08
1.690124225e-08
-1.66960136e-12
1.386582173e-11
-6.81760115e-12
5.349414995e-11
-1.554540983e-11
1.05326874e-10
-2.79024744e-11
1.70120873e-10
-4.389300664e-11
2.493272973e-10
-6.348390125e-11
3.453137256e-10
-8.660641161e-11
4.612674048e-10
-1.13151965e-10
6.008609972e-10
-1.429613998e-10
7.67863769e-10
-1.758062179e-10
9.6589033e-10
-2.113651479e-10
1.198347741e-09
-2.492032601e-10
1.468500202e-09
-2.887578266e-10
1.779546781e-09
-3.293304014e-10
2.134667159e-09
-3.700826149e-10
2.53703889e-09
-4.100337727e-10
2.989841274e-09
-4.48059925e-10
3.496255493e-09
-4.828930818e-10
4.059464558e-09
-5.131213934e-10
4.682654682e-09
-5.371900072e-10
5.369017758e-09
-5.534021773e-10
6.121755649e-09
-5.599220193e-10
6.944086079e-09
-5.547762178e-10
7.839250146e-09
-5.358586304e-10
8.81052693e-09
-5.00934333e-10
9.861270522e-09
-4.476489752e-10
1.099506636e-08
-3.735511371e-10
1.221651455e-08
-2.761568643e-10
1.353531e-08
-1.530020826e-10
1.498751437e-08
1.674824017e-08
-1.753230361e-12
1.561905209e-11
-7.121720997e-12
5.886264059e-11
-1.617266835e-11
1.143778214e-10
-2.892366515e-11
1.828718698e-10
-4.535426655e-11
2.657578987e-10
-6.54141674e-11
3.653736265e-10
-8.902141308e-11
4.848746504e-10
-1.160537974e-10
6.278933815e-10
-1.463357827e-10
7.981457543e-10
-1.796205125e-10
9.991750598e-10
-2.155687449e-10
1.234295974e-09
-2.537298606e-10
1.506661317e-09
-2.935285727e-10
1.819345493e-09
-3.342572259e-10
2.175395813e-09
-3.750715735e-10
2.577853238e-09
-4.149885524e-10
3.029758253e-09
-4.528849289e-10
3.53415187e-09
-4.874968058e-10
4.094076435e-09
-5.174196915e-10
4.712577568e-09
-5.41109089e-10
5.392707156e-09
-5.568819307e-10
6.137528491e-09
-5.62918037e-10
6.950122185e-09
-5.572629436e-10
7.833595053e-09
-5.378306011e-10
8.791094588e-09
-5.024075257e-10
9.825847447e-09
-4.48661956e-10
1.094132079e-08
-3.741669555e-10
1.214201955e-08
-2.764690135e-10
1.343761206e-08
-1.531317899e-10
1.486417714e-08
1.659510838e-08
-1.838911844e-12
1.745796393e-11
-7.432280908e-12
6.445600965e-11
-1.681208456e-11
1.237576251e-10
-2.996312819e-11
1.960229135e-10
-4.683905436e-11
2.826338249e-10
-6.737100747e-11
3.859055796e-10
-9.146304653e-11
5.089666895e-10
-1.189795582e-10
6.554098932e-10
-1.497296794e-10
8.288958755e-10
-1.834495161e-10
1.032894896e-09
-2.197829146e-10
1.270629372e-09
-2.582642231e-10
1.545142626e-09
-2.983059606e-10
1.859387231e-09
-3.391914011e-10
2.216281253e-09
-3.800704578e-10
2.618732295e-09
-4.199574525e-10
3.069645247e-09
-4.577297249e-10
3.571924142e-09
-4.92127163e-10
4.128473873e-09
-5.217521091e-10
4.742202514e-09
-5.450700941e-10
5.416025141e-09
-5.604106024e-10
6.152868999e-09
-5.659690574e-10
6.95568064e-09
-5.598082104e-10
7.827434206e-09
-5.398615023e-10
8.771147879e-09
-5.039365403e-10
9.789922485e-09
-4.497234222e-10
1.088710767e-08
-3.748204929e-10
1.206711662e-08
-2.76805604e-10
1.333959717e-08
-1.532715158e-10
1.474064305e-08
1.644183686e-08
-1.926650321e-12
1.938461425e-11
-7.748995103e-12
7.027835443e-11
-1.746271466e-11
1.334713446e-10
-3.101911401e-11
2.095793128e-10
-4.834507413e-11
2.99959785e-10
-6.93522255e-11
4.06912731e-10
-9.392990938e-11
5.335443734e-10
-1.219290786e-10
6.834090624e-10
-1.531442612e-10
8.601110581e-10
-1.872955169e-10
1.067046152e-09
-2.24010693e-10
1.307344548e-09
-2.628097563e-10
1.583941689e-09
-3.030933882e-10
1.899670863e-09
-3.441359749e-10
2.25732384e-09
-3.850816236e-10
2.659677943e-09
-4.249418706e-10
3.109505494e-09
-4.625945324e-10
3.609576804e-09
-4.967829231e-10
4.162662264e-09
-5.261158783e-10
4.771535469e-09
-5.490682799e-10
5.438977542e-09
-5.639819535e-10
6.167782673e-09
-5.690666295e-10
6.960765316e-09
-5.624023222e-10
7.820769899e-09
-5.41940946e-10
8.750686503e-09
-5.055104689e-10
9.753492008e-09
-4.508231133e-10
1.083242032e-08
-3.755028296e-10
1.199179634e-08
-2.771608125e-10
1.324125516e-08
-1.534196829e-10
1.461690192e-08
1.628841718e-08
-2.016447984e-12
2.140106223e-11
-8.071689884e-12
7.633359632e-11
-1.812395151e-11
1.435236062e-10
-3.209044092e-11
2.235458022e-10
-4.987072152e-11
3.177400656e-10
-7.13561775e-11
4.283981869e-10
-9.642082735e-11
5.586090232e-10
-1.249020531e-10
7.118902881e-10
-1.565801821e-10
8.917891872e-10
-1.911600349e-10
1.101626005e-09
-2.282542321e-10
1.344438745e-09
-2.673689116e-10
1.623056369e-09
-3.078932902e-10
1.940195241e-09
-3.490930285e-10
2.298523578e-09
-3.901064932e-10
2.700691408e-09
-4.299424608e-10
3.149341462e-09
-4.674788682e-10
3.647113211e-09
-5.014623325e-10
4.196645728e-09
-5.305078307e-10
4.800580968e-09
-5.530991726e-10
5.461568884e-09
-5.6758966e-10
6.18227316e-09
-5.72203369e-10
6.965379025e-09
-5.650365344e-10
7.813603064e-09
-5.440593789e-10
8.729709348e-09
-5.071196494e-10
9.716552278e-09
-4.519521176e-10
1.077725279e-08
-3.762076118e-10
1.191605183e-08
-2.775306719e-10
1.314257822e-08
-1.535737673e-10
1.449294502e-08
1.613484341e-08
-2.108300983e-12
2.350936321e-11
-8.400237669e-12
8.2625533e-11
-1.879535772e-11
1.539187263e-10
-3.317625123e-11
2.379266957e-10
-5.14147661e-11
3.359785805e-10
-7.338154049e-11
4.503649613e-10
-9.893476209e-11
5.841622448e-10
-1.278980301e-10
7.408535561e-10
-1.600377437e-10
9.239289008e-10
-1.950440745e-10
1.136632336e-09
-2.325150291e-10
1.3819097e-09
-2.719434601e-10
1.6624848e-09
-3.127074403e-10
1.980959221e-09
-3.54064149e-10
2.339880287e-09
-3.951461978e-10
2.741773457e-09
-4.34959519e-10
3.189154783e-09
-4.7238226e-10
3.684535952e-09
-5.061637782e-10
4.230427247e-09
-5.349250842e-10
4.829342274e-09
-5.571584979e-10
5.483802298e-09
-5.712285844e-10
6.196343247e-09
-5.753729573e-10
6.969523398e-09
-5.677037062e-10
7.805933813e-09
-5.462091689e-10
8.70821481e-09
-5.087567869e-10
9.679099896e-09
-4.531039017e-10
1.07215999e-08
-3.769289196e-10
1.183987685e-08
-2.779115796e-10
1.304356088e-08
-1.537325288e-10
1.436876597e-08
1.598111088e-08
-2.202183989e-12
2.571154719e-11
-8.734489145e-12
8.915783815e-11
-1.94765375e-11
1.646607746e-10
-3.427582927e-11
2.527259875e-10
-5.2976207e-11
3.546789582e-10
-7.542720428e-11
4.728159586e-10
-1.014707604e-10
6.102058009e-10
-1.309164818e-10
7.702992775e-10
-1.635169891e-10
9.56529408e-10
-1.989482025e-10
1.172063549e-09
-2.367940857e-10
1.419755583e-09
-2.765346236e-10
1.702225337e-09
-3.175370968e-10
2.021961695e-09
-3.590502986e-10
2.381393489e-09
-4.002012353e-10
2.782924394e-09
-4.399930395e-10
3.228946587e-09
-4.773036741e-10
3.721846587e-09
-5.108855549e-10
4.264009127e-09
-5.393649225e-10
4.857821641e-09
-5.612424903e-10
5.505679865e-09
-5.748936774e-10
6.209994434e-09
-5.785695721e-10
6.973199292e-09
-5.703976647e-10
7.797761906e-09
-5.48383569e-10
8.686200715e-09
-5.104154358e-10
9.641131763e-09
-4.542729365e-10
1.06654574e-08
-3.776631182e-10
1.176326703e-08
-2.783012321e-10
1.294419899e-08
-1.538958741e-10
1.424436061e-08
1.582721501e-08
-2.298051998e-12
2.800959919e-11
-9.074276138e-12
9.593406229e-11
-2.016713934e-11
1.757536378e-10
-3.538856322e-11
2.679474113e-10
-5.45541976e-11
3.738445926e-10
-7.749220714e-11
4.957539681e-10
-1.040279584e-10
6.367415521e-10
-1.339568445e-10
8.002281636e-10
-1.670177521e-10
9.895903156e-10
-2.028727167e-10
1.207918514e-09
-2.410920375e-10
1.457974904e-09
-2.811432496e-10
1.74227655e-09
-3.223830788e-10
2.063201524e-09
-3.640522202e-10
2.42306263e-09
-4.052720851e-10
2.824144259e-09
-4.45042901e-10
3.268717403e-09
-4.822425116e-10
3.759046198e-09
-5.15625907e-10
4.297392523e-09
-5.438248852e-10
4.886020619e-09
-5.653479764e-10
5.527202957e-09
-5.785811939e-10
6.223227651e-09
-5.817884378e-10
6.976406536e-09
-5.731126784e-10
7.789086146e-09
-5.505774182e-10
8.663665454e-09
-5.120902252e-10
9.60264457e-09
-4.554549894e-10
1.060882217e-08
-3.784069184e-10
1.168621896e-08
-2.786976288e-10
1.28444897e-08
-1.540621668e-10
1.411972515e-08
1.567315284e-08
-2.39585066e-12
3.040544984e-11
-9.419419608e-12
1.029576312e-10
-2.086679009e-11
1.872010083e-10
-3.651386304e-11
2.835944843e-10
-5.614796001e-11
3.934786896e-10
-7.957567448e-11
5.191816826e-10
-1.066055439e-10
6.637714216e-10
-1.370185281e-10
8.306411478e-10
-1.705398076e-10
1.023111595e-09
-2.068177202e-10
1.244196426e-09
-2.454093174e-10
1.496566501e-09
-2.8576995e-10
1.782637182e-09
-3.272460723e-10
2.104677646e-09
-3.690704173e-10
2.464886975e-09
-4.103588903e-10
2.865432732e-09
-4.501088561e-10
3.308467369e-09
-4.871980262e-10
3.796135368e-09
-5.203837118e-10
4.330578208e-09
-5.483028599e-10
4.913939767e-09
-5.694719041e-10
5.548372001e-09
-5.822872189e-10
6.236042966e-09
-5.85025508e-10
6.979144825e-09
-5.758448622e-10
7.7799055e-09
-5.527861868e-10
8.640606779e-09
-5.137775728e-10
9.563635956e-09
-4.566463115e-10
1.05516909e-08
-3.791578712e-10
1.160873052e-08
-2.79099747e-10
1.274443158e-08
-1.542315762e-10
1.399485698e-08
1.551892127e-08
-2.495514142e-12
3.290096398e-11
-9.769711178e-12
1.102318283e-10
-2.157512394e-11
1.990064211e-10
-3.765122077e-11
2.996705811e-10
-5.775682753e-11
4.135842963e-10
-8.167686054e-11
5.431017156e-10
-1.092027881e-10
6.912973491e-10
-1.40100989e-10
8.615393487e-10
-1.740828745e-10
1.05709348e-09
-2.107832863e-10
1.280896838e-09
-2.497462155e-10
1.53552943e-09
-2.904152074e-10
1.823306174e-09
-3.321266836e-10
2.146389122e-09
-3.741054213e-10
2.506865713e-09
-4.154619748e-10
2.906789285e-09
-4.551908475e-10
3.348196242e-09
-4.921694241e-10
3.833113944e-09
-5.251575958e-10
4.36356638e-09
-5.527971118e-10
4.941579284e-09
-5.736121369e-10
5.569187026e-09
-5.860090557e-10
6.248439885e-09
-5.882773453e-10
6.981413115e-09
-5.785902544e-10
7.770218409e-09
-5.550062927e-10
8.617022817e-09
-5.154738101e-10
9.524103474e-09
-4.578446074e-10
1.04940617e-08
-3.799140665e-10
1.153079998e-08
-2.795061483e-10
1.264402366e-08
-1.544031904e-10
1.386975402e-08
1.536451808e-08
-2.59696595e-12
3.549792993e-11
-1.012495058e-11
1.177598129e-10
-2.229179517e-11
2.111732656e-10
-3.880011694e-11
3.161789029e-10
-5.938017521e-11
4.341643546e-10
-8.379509259e-11
5.67516633e-10
-1.118190914e-10
7.193213479e-10
-1.432037531e-10
8.929240104e-10
-1.776467266e-10
1.091536454e-09
-2.147694259e-10
1.318019537e-09
-2.541030404e-10
1.574863045e-09
-2.950795109e-10
1.864282645e-09
-3.370253243e-10
2.188334936e-09
-3.791576562e-10
2.548998045e-09
-4.205816532e-10
2.948213282e-09
-4.602889068e-10
3.387903495e-09
-4.971566044e-10
3.869981642e-09
-5.299467405e-10
4.396356516e-09
-5.573062936e-10
4.968938837e-09
-5.777666618e-10
5.589647394e-09
-5.897443676e-10
6.260417591e-09
-5.915415771e-10
6.983210325e-09
-5.813462853e-10
7.760023118e-09
-5.572349612e-10
8.592911493e-09
-5.17176351e-10
9.484044863e-09
-4.590474774e-10
1.043593283e-08
-3.806741924e-10
1.14524267e-08
-2.799160402e-10
1.254326551e-08
-1.545771447e-10
1.374441512e-08
1.520994093e-08
-2.700133096e-12
3.819806302e-11
-1.04849298e-11
1.255446096e-10
-2.301645388e-11
2.237047897e-10
-3.99601236e-11
3.331225726e-10
-6.10174914e-11
4.552217224e-10
-8.592981736e-11
5.92428959e-10
-1.144539451e-10
7.478454756e-10
-1.463264919e-10
9.247965573e-10
-1.812312284e-10
1.12644119e-09
-2.187762709e-10
1.35556458e-09
-2.584801516e-10
1.614566926e-09
-2.997633479e-10
1.905565841e-09
-3.41942718e-10
2.230514306e-09
-3.842277737e-10
2.5912831e-09
-4.257183613e-10
2.98970387e-09
-4.654033146e-10
3.427588449e-09
-5.021593737e-10
3.906737701e-09
-5.34750963e-10
4.428948105e-09
-5.618295538e-10
4.996017427e-09
-5.819341886e-10
5.609752029e-09
-5.934914885e-10
6.271974891e-09
-5.948157644e-10
6.9845346e-09
-5.841104837e-10
7.749317837e-09
-5.594697667e-10
8.568270776e-09
-5.188836117e-10
9.443458708e-09
-4.602533624e-10
1.037730258e-08
-3.814368628e-10
1.13736102e-08
-2.803292431e-10
1.244215789e-08
-1.547532444e-10
1.361883913e-08
1.505518769e-08
-2.804940303e-12
4.100300332e-11
-1.084944202e-11
1.335891113e-10
-2.374880421e-11
2.366041519e-10
-4.113083397e-11
3.505046023e-10
-6.26683452e-11
4.767592336e-10
-8.808063608e-11
6.178412498e-10
-1.171070027e-10
7.768718423e-10
-1.494690016e-10
9.571585562e-10
-1.848364321e-10
1.161808621e-09
-2.228041113e-10
1.393532259e-09
-2.628780681e-10
1.654640882e-09
-3.044675105e-10
1.947155283e-09
-3.468796785e-10
2.272926474e-09
-3.89316638e-10
2.63372006e-09
-4.308730037e-10
3.031260235e-09
-4.705346862e-10
3.467250131e-09
-5.071782063e-10
3.943381221e-09
-5.395700455e-10
4.461339944e-09
-5.663665558e-10
5.022813938e-09
-5.861141384e-10
5.629499611e-09
-5.972491729e-10
6.283109925e-09
-5.980988368e-10
6.985384264e-09
-5.868816045e-10
7.738100605e-09
-5.617094149e-10
8.543098586e-09
-5.205935171e-10
9.402342811e-09
-4.614614741e-10
1.031817054e-08
-3.822016919e-10
1.129435041e-08
-2.807449974e-10
1.234070119e-08
-1.549309412e-10
1.349302507e-08
1.490025675e-08
-2.911312522e-12
4.391431584e-11
-1.12183153e-11
1.418961141e-10
-2.4488559e-11
2.498743956e-10
-4.231195107e-11
3.683279944e-10
-6.433242213e-11
4.987797047e-10
-9.024725426e-11
6.43756082e-10
-1.197781219e-10
8.064027099e-10
-1.526312966e-10
9.900117309e-10
-1.884625645e-10
1.197639889e-09
-2.268534472e-10
1.431923142e-09
-2.672975469e-10
1.695084982e-09
-3.091928827e-10
1.989050619e-09
-3.518373636e-10
2.315570955e-09
-3.944254143e-10
2.676308111e-09
-4.360466259e-10
3.072881447e-09
-4.756840675e-10
3.506887573e-09
-5.122138379e-10
3.979910991e-09
-5.444045201e-10
4.493530627e-09
-5.709175037e-10
5.049326921e-09
-5.903061775e-10
5.648888285e-09
-6.01017139e-10
6.293820887e-09
-6.013899139e-10
6.985757039e-09
-5.896584544e-10
7.726369145e-09
-5.639529333e-10
8.517393065e-09
-5.223058477e-10
9.360695725e-09
-4.626706909e-10
1.025853538e-08
-3.829681476e-10
1.121464787e-08
-2.811632178e-10
1.223889626e-08
-1.551105797e-10
1.336697243e-08
1.474514617e-08
-3.01918254e-12
4.693349838e-11
-1.159137466e-11
1.504683062e-10
-2.523550746e-11
2.635185284e-10
-4.350322395e-11
3.865957109e-10
-6.600952763e-11
5.212860084e-10
-9.242959495e-11
6.701761493e-10
-1.224673449e-10
8.364404599e-10
-1.558136376e-10
1.023358024e-09
-1.921101553e-10
1.233936406e-09
-2.309250888e-10
1.470738075e-09
-2.7173969e-10
1.735899583e-09
-3.139409371e-10
2.031251866e-09
-3.568172003e-10
2.358447218e-09
-3.995558301e-10
2.71904674e-09
-4.412409954e-10
3.114566612e-09
-4.808530314e-10
3.546499609e-09
-5.17267664e-10
4.016325624e-09
-5.492558534e-10
4.525518816e-09
-5.754832672e-10
5.075554335e-09
-5.945110744e-10
5.667916092e-09
-6.047955464e-10
6.304105359e-09
-6.046891538e-10
6.985650647e-09
-5.924410414e-10
7.714121033e-09
-5.661995803e-10
8.491151604e-09
-5.240198136e-10
9.318515958e-09
-4.638810241e-10
1.019839659e-08
-3.83736051e-10
1.11345029e-08
-2.815837156e-10
1.213674393e-08
-1.552921445e-10
1.324068086e-08
1.458985402e-08
-3.128496305e-12
5.006199468e-11
-1.196849868e-11
1.593083086e-10
-2.598949481e-11
2.775395245e-10
-4.470455136e-11
4.053107674e-10
-6.769962363e-11
5.442810806e-10
-9.462777511e-11
6.971043007e-10
-1.251749722e-10
8.66987657e-10
-1.590166095e-10
1.057199661e-09
-1.957800702e-10
1.270699867e-09
-2.35020242e-10
1.509978247e-09
-2.762060243e-10
1.777085366e-09
-3.187133423e-10
2.073759184e-09
-3.618213598e-10
2.401555235e-09
-4.047099172e-10
2.761935298e-09
-4.464582196e-10
3.156314915e-09
-4.860437873e-10
3.586085176e-09
-5.223419075e-10
4.052623744e-09
-5.541255708e-10
4.557302479e-09
-5.80065424e-10
5.101494188e-09
-5.987298813e-10
5.68658055e-09
-6.085853835e-10
6.313960861e-09
-6.079969235e-10
6.985062187e-09
-5.952293875e-10
7.701353497e-09
-5.684500225e-10
8.464372239e-09
-5.257354542e-10
9.27580139e-09
-4.650924125e-10
1.013775355e-08
-3.84505368e-10
1.105391585e-08
-2.820070492e-10
1.203424561e-08
-1.554753638e-10
1.311414918e-08
1.443437866e-08
-3.239194921e-12
5.33011896e-11
-1.23495934e-11
1.68418707e-10
-2.67504194e-11
2.919403505e-10
-4.591590709e-11
4.244762551e-10
-6.940287752e-11
5.67768051e-10
-9.684211739e-11
7.245435406e-10
-1.279016296e-10
8.980471692e-10
-1.622411091e-10
1.09153914e-09
-1.994735743e-10
1.307932332e-09
-2.391405501e-10
1.549645223e-09
-2.806985536e-10
1.818643369e-09
-3.235125644e-10
2.116573195e-09
-3.668524054e-10
2.444895076e-09
-4.098906856e-10
2.804973578e-09
-4.517013278e-10
3.198125557e-09
-4.912591353e-10
3.625642984e-09
-5.274391193e-10
4.088803728e-09
-5.590163277e-10
4.588879687e-09
-5.846663033e-10
5.127144164e-09
-6.029646544e-10
5.704878901e-09
-6.12388106e-10
6.323384312e-09
-6.113146328e-10
6.983988713e-09
-5.980248087e-10
7.688063673e-09
-5.707047e-10
8.43705213e-09
-5.274535851e-10
9.232550275e-09
-4.663053551e-10
1.007660532e-08
-3.852768466e-10
1.097288734e-08
-2.824325203e-10
1.193140128e-08
-1.556601726e-10
1.298737683e-08
1.427871849e-08
-3.351250182e-12
5.665243978e-11
-1.273459383e-11
1.778020507e-10
-2.751830741e-11
3.067240641e-10
-4.713745697e-11
4.440954047e-10
-7.111961327e-11
5.917502073e-10
-9.907327985e-11
7.524972072e-10
-1.306482807e-10
9.296221701e-10
-1.654884761e-10
1.126379336e-09
-2.031924615e-10
1.345636318e-09
-2.432882197e-10
1.589740981e-09
-2.852199371e-10
1.860575086e-09
-3.283415663e-10
2.159694824e-09
-3.719137013e-10
2.488467211e-09
-4.151015915e-10
2.848161468e-09
-4.569741133e-10
3.239998079e-09
-4.96503119e-10
3.66517199e-09
-5.325632595e-10
4.124863869e-09
-5.639319652e-10
4.620248393e-09
-5.89289199e-10
5.152501398e-09
-6.072184428e-10
5.722808145e-09
-6.162064182e-10
6.332372288e-09
-6.146443224e-10
6.982426617e-09
-6.008286138e-10
7.674247964e-09
-5.729647367e-10
8.409188253e-09
-5.291750027e-10
9.188760541e-09
-4.675202734e-10
1.001495059e-08
-3.860503613e-10
1.089141743e-08
-2.828612088e-10
1.182821213e-08
-1.558474941e-10
1.286036311e-08
1.412287099e-08
-3.464639655e-12
6.011707944e-11
-1.312351091e-11
1.874609219e-10
-2.829324388e-11
3.218937971e-10
-4.836948739e-11
4.641716482e-10
-7.285045543e-11
6.162311754e-10
-1.013221915e-10
7.809689433e-10
-1.334162606e-10
9.617162392e-10
-1.687605806e-10
1.161723656e-09
-2.069390578e-10
1.383814795e-09
-2.474661452e-10
1.630268068e-09
-2.897735461e-10
1.902882487e-09
-3.332043216e-10
2.203125599e-09
-3.770095809e-10
2.532272471e-09
-4.203473093e-10
2.891499197e-09
-4.622812613e-10
3.281932031e-09
-5.017804289e-10
3.704671157e-09
-5.377190883e-10
4.160802528e-09
-5.688767458e-10
4.651406051e-09
-5.939383767e-10
5.177563029e-09
-6.114949556e-10
5.740364724e-09
-6.20043702e-10
6.340921034e-09
-6.17988809e-10
6.980371725e-09
-6.036434459e-10
7.659902601e-09
-5.752322804e-10
8.380777088e-09
-5.309008666e-10
9.144429127e-09
-4.687387065e-10
9.952788428e-09
-3.868271235e-10
1.080950585e-08
-2.832933991e-10
1.17246784e-08
-1.560366296e-10
1.273310634e-08
1.396683436e-08
-3.579352662e-12
6.36964321e-11
-1.351640533e-11
1.973979746e-10
-2.907548718e-11
3.374528789e-10
-4.961253456e-11
4.847086956e-10
-7.459625735e-11
6.412148982e-10
-1.035901865e-10
8.099628724e-10
-1.362074729e-10
9.943335256e-10
-1.720598253e-10
1.197576008e-09
-2.107164366e-10
1.422471406e-09
-2.516780178e-10
1.67122965e-09
-2.943638237e-10
1.945568293e-09
-3.38105629e-10
2.246867405e-09
-3.821454117e-10
2.576312253e-09
-4.2563362e-10
2.934987405e-09
-4.676288486e-10
3.323927259e-09
-5.070971738e-10
3.744139482e-09
-5.429125526e-10
4.196617907e-09
-5.73856522e-10
4.68235002e-09
-5.986192436e-10
5.20232575e-09
-6.157991529e-10
5.757544633e-09
-6.239041906e-10
6.349026072e-09
-6.213521351e-10
6.977819669e-09
-6.064725336e-10
7.645022999e-09
-5.77509881e-10
8.351814435e-09
-5.32633755e-10
9.099553001e-09
-4.699618012e-10
9.890116474e-09
-3.876080272e-10
1.072715207e-08
-2.837294031e-10
1.162079978e-08
-1.562279077e-10
1.260560485e-08
1.381060645e-08
-3.695405185e-12
6.739183728e-11
-1.391339828e-11
2.076159677e-10
-2.986537578e-11
3.534048564e-10
-5.08673033e-11
5.057106231e-10
-7.635826008e-11
6.66705855e-10
-1.058790688e-10
8.394836811e-10
-1.390243022e-10
1.027478759e-09
-1.75389372e-10
1.233941078e-09
-2.145284491e-10
1.461610483e-09
-2.559284466e-10
1.712629647e-09