/*--------------------------------*- C++ -*----------------------------------*\
  =========                 |
  \\      /  F ield         | OpenFOAM: The Open Source CFD Toolbox
   \\    /   O peration     | Website:  https://openfoam.org
    \\  /    A nd           | Version:  8
     \\/     M anipulation  |
\*---------------------------------------------------------------------------*/
FoamFile
{
    version     2.0;
    format      ascii;
    class       volScalarField;
    location    "900";
    object      T;
}
// * * * * * * * * * * * * * * * * * * * * * * * * * * * * * * * * * * * * * //

dimensions      [0 0 0 1 0 0 0];

internalField   nonuniform List<scalar> 
6300
(
481.3957275
473.2374407
469.3043629
467.3259081
466.3965079
466.0203715
465.8951963
465.8618209
465.8548496
465.8537967
465.853766
465.8538585
465.853948
465.8540224
465.8540831
465.8541323
465.8541718
465.8542033
465.8542282
465.8542474
465.8542621
465.8542727
465.85428
465.8542844
465.8542866
465.8542889
465.8543059
465.8544811
465.8587194
466.1225466
487.09731
478.7266853
472.9090255
469.2234011
467.2149796
466.3093201
465.9794814
465.8839049
465.8621224
465.8583323
465.8579368
465.858023
465.8581432
465.858246
465.8583293
465.8583958
465.858448
465.8584883
465.8585187
465.8585407
465.8585557
465.8585649
465.8585692
465.8585693
465.858567
465.858568
465.8586116
465.8591543
465.871431
466.3968818
488.764257
481.170131
475.0323992
470.6308974
467.9540405
466.618327
466.0833116
465.913603
465.8713537
465.8632363
465.8621608
465.8621932
465.862338
465.8624682
465.862574
465.8626579
465.8627232
465.8627729
465.8628095
465.8628351
465.8628515
465.8628602
465.8628625
465.8628597
465.8628542
465.8628574
465.8629498
465.8641371
465.8881175
466.6718415
489.3996763
482.3978774
476.3198475
471.6354161
468.565533
466.911014
466.1943889
465.9485585
465.8823769
465.8685624
465.866471
465.8663889
465.866548
465.8667022
465.8668281
465.8669276
465.8670045
465.8670624
465.8671043
465.8671327
465.8671499
465.8671578
465.8671579
465.867152
465.8671439
465.8671527
465.8673265
465.8695163
465.9087714
466.9473971
489.7043428
483.0869863
477.1371678
472.3520394
469.0539692
467.1717712
466.3041563
465.9863679
465.8948208
465.8742967
465.8708749
465.8706122
465.8707735
465.870948
465.8710916
465.8712047
465.8712916
465.8713562
465.8714022
465.8714326
465.8714499
465.8714564
465.8714538
465.8714446
465.8714346
465.8714546
465.8717566
465.8753863
465.9334128
467.2235289
489.8752865
483.5082799
477.6788769
472.8690311
469.4387291
467.3963842
466.4074798
466.0250245
465.9082508
465.8803922
465.8753738
465.8748644
465.8750145
465.8752055
465.8753645
465.8754893
465.8755844
465.8756544
465.8757033
465.8757346
465.8757512
465.8757556
465.87575
465.8757375
465.8757267
465.8757658
465.8762595
465.8818427
465.9620619
467.5002212
489.9810298
483.7819057
478.0505361
473.2469806
469.7404413
467.5861421
466.5017355
466.0630399
465.9222473
465.8867833
465.8799641
465.879146
465.8792711
465.8794748
465.8796468
465.8797812
465.8798829
465.8799568
465.8800075
465.8800387
465.8800538
465.8800555
465.8800465
465.8800307
465.8800207
465.8800904
465.8808576
465.8889816
465.9947391
467.7774598
490.050398
483.9669485
478.3120552
473.5265205
469.9768805
467.7446096
466.5859408
466.09941
465.9364474
465.8933966
465.8846385
465.8834573
465.8835436
465.8837558
465.8839385
465.8840806
465.8841872
465.8842636
465.8843147
465.8843449
465.8843576
465.884356
465.8843432
465.8843244
465.8843175
465.8844334
465.8855763
465.8968994
466.031465
468.0552316
490.0974594
484.0951824
478.4990969
473.734997
470.162237
467.8759819
466.6600944
466.1335225
465.9505601
465.90016
465.8893872
465.887798
465.887832
465.8880485
465.8882395
465.8883876
465.8884973
465.8885747
465.8886252
465.8886532
465.8886627
465.8886572
465.8886403
465.8886187
465.8886183
465.8888008
465.8904442
465.9056931
466.0722603
468.3335236
490.1298778
484.185016
478.6338761
473.8910879
470.3074995
467.9843252
466.7247307
466.1650563
465.9643665
465.9070078
465.8941992
465.8921675
465.8921366
465.8923532
465.8925501
465.8927021
465.8928133
465.8928904
465.8929389
465.8929637
465.8929692
465.8929591
465.8929379
465.8929141
465.8929247
465.8932
465.8954929
465.9154601
466.1171459
468.6123231
490.1521831
484.247787
478.7308143
474.0078009
470.4210922
468.0732762
466.7806417
466.1938947
465.9777118
465.9138831
465.8990631
465.8965647
465.8964577
465.8966699
465.8968704
465.8970243
465.8971354
465.8972106
465.8972558
465.8972765
465.897277
465.8972618
465.8972358
465.8972107
465.8972385
465.8976396
465.900757
465.9262983
466.1661422
468.8916172
490.1672261
484.2908377
478.7996234
474.0943856
470.5094747
468.1459628
466.8287121
466.2200567
465.9904945
465.9207392
465.9039679
465.9009884
465.9007953
465.9009991
465.9012005
465.9013544
465.9014637
465.9015354
465.9015762
465.9015915
465.9015862
465.9015651
465.9015342
465.9015091
465.901562
465.9021299
465.9062742
465.9383059
466.2192701
469.1713926
490.1768916
484.3191271
478.8470591
474.1575561
470.5776269
468.2050214
466.8698265
466.2436476
466.0026556
465.9275392
465.9089037
465.9054374
465.9051497
465.9053408
465.9055407
465.9056925
465.9057982
465.905865
465.9058998
465.9059087
465.9058967
465.9058691
465.9058332
465.9058098
465.9058981
465.9066826
465.9120856
465.9515818
466.27655
469.4516357
490.1824782
484.3361255
478.8779576
474.2022837
470.6294199
468.2526541
466.9048209
466.2648229
466.0141683
465.9342553
465.9138616
465.9099102
465.909521
465.9096953
465.9098911
465.9100388
465.910139
465.9101993
465.9102269
465.9102281
465.9102084
465.9101736
465.9101326
465.9101136
465.9102502
465.9113112
465.9182349
465.9662254
466.3380027
469.7323322
490.1849115
484.3443373
478.8958702
474.2323181
470.6678919
468.2906927
466.9344609
466.2837648
466.02503
465.9408679
465.9188341
465.9144057
465.9139094
465.9140629
465.9142518
465.9143933
465.9144862
465.9145383
465.9145573
465.9145496
465.9145212
465.9144785
465.9144328
465.9144213
465.9146226
465.9160311
465.9247693
465.9823366
466.4036486
470.0134674
490.1848716
484.3456185
478.9034643
474.2505367
470.6954511
468.3206616
466.9594341
466.3006655
466.035255
465.9473641
465.923815
465.9189226
465.9183151
465.9184438
465.9186232
465.9187562
465.9188398
465.9188822
465.918891
465.9188732
465.918835
465.9187838
465.9187337
465.9187342
465.9190203
465.9208597
465.9317389
466.0000155
466.4735081
470.2950259
490.1828706
484.341377
478.9027842
474.2591828
470.7140263
468.3438316
466.9803507
466.3157174
466.0448697
465.9537365
465.9287995
465.92346
465.922738
465.9228384
465.9230054
465.9231275
465.9232
465.9232307
465.9232279
465.9231986
465.9231496
465.9230893
465.9230356
465.9230538
465.9234492
465.9258163
465.9391972
466.0193632
466.547602
470.5769914
490.1793032
484.3327032
478.8954254
474.2600306
470.7251764
468.3612655
466.9977487
466.3291064
466.0539081
465.9599823
465.933784
465.9280169
465.9271784
465.9272468
465.9273985
465.9275075
465.9275667
465.927584
465.9275678
465.9275256
465.9274648
465.9273948
465.9273388
465.9273819
465.9279162
465.9309226
465.9472005
466.0404809
466.6259504
470.859347
490.1744799
484.320457
478.8826528
474.2545017
470.7301739
468.3738558
467.0120999
466.341008
466.0624088
465.9661023
465.9387658
465.9325927
465.9316364
465.9316693
465.9318028
465.9318962
465.9319399
465.9319418
465.9319107
465.9318542
465.9317803
465.9317004
465.9316437
465.9317209
465.9324293
465.9362025
465.9558085
466.0634705
466.708574
471.142075
490.1686487
484.3053277
478.8654843
474.2437489
470.7300657
468.3823551
467.0238177
466.3515861
466.070413
465.9720998
465.9437434
465.9371869
465.9361122
465.936106
465.9362184
465.9362935
465.9363196
465.9363042
465.9362564
465.9361841
465.9360961
465.9360059
465.935951
465.9360735
465.9369979
465.9416825
465.9650838
466.0884346
466.7954927
471.4251566
490.1620113
484.2878755
478.8447487
474.2287171
470.7257204
468.3874005
467.0332635
466.3609912
466.0779625
465.9779804
465.9487159
465.941799
465.9406058
465.9405574
465.9406455
465.9406997
465.9407057
465.940671
465.9406046
465.940515
465.9404118
465.9403114
465.9402614
465.9404431
465.9416324
465.9473913
465.9750925
466.115476
466.8867268
471.7085724
490.1547338
484.2685614
478.8211288
474.2101875
470.7178634
468.3895338
467.0407534
466.3693613
466.0850989
465.9837509
465.9536833
465.9464288
465.9451176
465.9450235
465.9450841
465.9451147
465.9450983
465.945042
465.9449552
465.9448467
465.9447272
465.9446168
465.9445761
465.9448336
465.9463451
465.9533608
465.9859035
466.1446982
466.9822964
471.9923019
490.1469543
484.2477691
478.7951926
474.188812
470.7071047
468.3892173
467.046564
466.3768216
466.0918624
465.9894194
465.9586461
465.9510765
465.9496475
465.9495045
465.9495343
465.9495385
465.9494971
465.9494171
465.9493079
465.9491788
465.9490421
465.9489224
465.9488963
465.9492499
465.9511494
465.9596251
465.9975892
466.1762054
467.0822212
472.2763235
490.1387893
484.2258206
478.7674162
474.1651378
470.6939598
468.386847
467.050937
466.3834855
466.0982916
465.9949944
465.9636051
465.9557418
465.9541959
465.9540006
465.9539964
465.9539712
465.9539022
465.953796
465.9536623
465.9535111
465.9533563
465.9532284
465.9532238
465.9536975
465.9560608
465.9662214
466.0102248
466.2101021
467.186521
472.5606148
490.1303375
484.2029884
478.7382018
474.1396276
470.6788667
468.3827629
467.0540843
466.3894554
466.1044232
466.0004849
465.9685616
465.9604252
465.9587629
465.9585121
465.9584703
465.9584125
465.9583132
465.9581785
465.9580183
465.9578433
465.9576696
465.9575352
465.9575604
465.9581828
465.9610964
465.9731901
466.0238891
466.2464934
467.2952154
472.8451521
490.1216833
484.1795043
478.7078907
474.1126739
470.6621986
468.3772578
467.0561915
466.3948233
466.1102915
466.0058998
465.9735173
465.9651269
465.9633488
465.963039
465.9629561
465.9628626
465.9627301
465.9625644
465.9623754
465.962175
465.9619819
465.9618433
465.9619089
465.9627132
465.9662753
465.9805743
466.0386638
466.2854852
467.4083235
473.1299108
490.1128991
484.1555667
478.6767741
474.0846115
470.6442748
468.3705846
467.0574211
466.399672
466.1159286
466.0112484
465.9784739
465.9698472
465.9679538
465.9675815
465.9674538
465.9673213
465.9671526
465.9669532
465.9667334
465.9665058
465.9662932
465.9661536
465.9662721
465.9672974
465.9716188
465.9884207
466.054634
466.3271838
467.5258642
473.4148648
490.1040475
484.1313456
478.6451007
474.0557261
470.6253688
468.3629613
467.0579157
466.4040754
466.121364
466.0165393
465.9834334
465.9745866
465.972578
465.9721398
465.9719634
465.9717884
465.9715805
465.9713448
465.9710917
465.9708356
465.9706034
465.9704669
465.9706537
465.971945
465.9771503
465.996779
466.071888
466.3716962
467.6478567
473.6999872
490.0951823
484.1069868
478.6130834
474.0262619
470.6057151
468.3545765
467.0577999
466.4080998
466.1266253
466.0217812
465.9883979
465.9793456
465.9772217
465.9767138
465.9764848
465.9762638
465.9760135
465.9757386
465.97545
465.9751639
465.9749127
465.9747847
465.9750578
465.9766674
465.9828958
466.0057025
466.0905174
466.4191301
467.7743192
473.9852496
490.08635
484.0826155
478.5809036
473.9964274
470.5855144
468.345593
467.057183
466.4118042
466.1317375
466.0269823
465.9933694
465.9841248
465.9818852
465.9813038
465.9810181
465.9807473
465.9804513
465.9801343
465.9798079
465.9794905
465.9792213
465.9791085
465.9794895
465.981477
465.9888836
466.0152481
466.110617
466.4695936
467.9052699
474.2706224
490.0775908
484.0583383
478.5487162
473.9664001
470.5649384
468.3361511
467.0561602
466.4152414
466.1367236
466.0321505
465.9983502
465.9889248
465.9865686
465.9859097
465.9855631
465.9852386
465.9848935
465.9845314
465.9841649
465.9838151
465.9835295
465.9834403
465.9839546
465.986388
465.9951447
466.0254762
466.1322851
466.5231957
468.0407267
474.5560745
490.0689387
484.0342455
478.5166515
473.9363298
470.5441328
468.326371
467.0548144
466.4184578
466.1416047
466.0372931
466.0033423
465.993746
465.9912722
465.9905316
465.9901197
465.9897375
465.9893396
465.9889295
465.9885206
465.9881375
465.9878378
465.9877825
465.9884598
465.9914164
466.0017132
466.0364513
466.1556233
466.5800462
468.1807071
474.8415738
490.0604225
484.0104126
478.4848181
473.9063418
470.5232204
468.3163554
467.0532173
466.4214947
466.1463995
466.0424172
466.0083479
465.9985893
465.9959961
465.9951693
465.9946876
465.9942435
465.9937893
465.993328
465.9928745
465.9924576
465.9921471
465.992138
465.9930128
465.99658
466.008626
466.0482416
466.1807368
466.6402555
468.3252284
475.1270864
490.0520662
483.9869007
478.4533043
473.8765386
470.5023031
468.3061906
467.0514306
466.424388
466.1511253
466.0475291
466.0133689
466.003455
466.0007404
465.999823
465.9992665
465.9987563
465.998242
465.9977264
465.9972261
465.9967752
465.9964584
465.9965104
465.9976225
466.0018988
466.0159235
466.0609195
466.2077341
466.703935
468.4743072
475.4125771
490.0438886
483.9637578
478.4221793
473.8470018
470.4814635
468.2959485
467.0495066
466.4271691
466.1557971
466.0526348
466.0184073
466.0083438
466.0055053
466.0044923
466.0038563
466.0032754
466.002697
466.002124
466.0015749
466.0010905
466.0007728
466.0009037
466.0022992
466.0073947
466.0236491
466.0745618
466.2367277
466.7711969
468.6279598
475.6980094
490.035904
483.9410187
478.3914936
473.8177924
470.4607659
468.2856868
467.0474888
466.4298649
466.1604284
466.0577397
466.0234649
466.0132561
466.0102908
466.0091772
466.0084564
466.0078003
466.0071538
466.0065201
466.0059205
466.0054035
466.0050921
466.0053228
466.0070544
466.0130924
466.0318501
466.0892495
466.2678333
466.8421543
468.7862026
475.9833451
490.0281213
483.9187042
478.3612787
473.7889517
470.4402568
468.2754502
467.0454123
466.432498
466.1650309
466.0628488
466.0285434
466.0181925
466.0150968
466.0138772
466.0130664
466.0123302
466.0116116
466.0109141
466.0102624
466.0097145
466.0094182
466.0097734
466.0119013
466.0190191
466.0405778
466.1050684
466.301171
466.9169216
468.949051
476.2685443
490.0205447
483.8968213
478.3315467
473.7605003
470.4199651
468.2652701
467.0433043
466.4350869
466.1696146
466.0679662
466.0336443
466.0231532
466.0199232
466.0185921
466.0176857
466.0168644
466.0160695
466.0153051
466.0146002
466.0140241
466.0137536
466.0142622
466.0168546
466.0252047
466.0498873
466.1221092
466.3368644
466.9956142
469.1165203
476.5535659
490.0131721
483.8753612
478.3022884
473.7324371
470.399901
468.2551648
467.0411838
466.4376456
466.1741875
466.0730957
466.0387687
466.0281385
466.0247698
466.0233212
466.0223135
466.0214021
466.0205266
466.0196924
466.0189335
466.0183327
466.0181012
466.0187969
466.0219313
466.0316823
466.0598382
466.1404676
466.3750417
467.0783489
469.2886254
476.8383669
490.005995
483.8542973
478.2734712
473.7047373
470.3800554
468.2451385
467.0390611
466.4401841
466.1787559
466.0782402
466.0439177
466.0331484
466.0296362
466.0280639
466.0269488
466.0259421
466.0249818
466.0240751
466.0232619
466.0226415
466.0224648
466.0233863
466.0271501
466.0384884
466.0704949
466.1602448
466.4158352
467.1652442
469.4653813
477.1229029
489.998997
483.8335822
478.2450352
473.6773491
470.3603967
468.2351802
467.0369379
466.4427076
466.1833242
466.0834019
466.049092
466.0381828
466.0345217
466.0328192
466.0315907
466.0304833
466.0294339
466.0284521
466.0275852
466.0269515
466.0268484
466.0280407
466.0325323
466.0456631
466.0819267
466.1815476
466.459382
467.2564198
469.6468019
477.4071276
489.9921521
483.8131441
478.2168882
473.6501895
470.3408686
468.225262
467.0348055
466.4452165
466.1878945
466.0885821
466.0542918
466.0432411
466.0394255
466.037586
466.0362377
466.0350241
466.0338816
466.0328224
466.0319031
466.0312644
466.0312574
466.032772
466.0381019
466.0532505
466.0942082
466.2044888
466.5058241
467.3519977
469.8329017
477.6909933
489.9854227
483.79288
478.1888986
473.6231371
470.3213847
468.2153361
467.0326441
466.4477053
466.1924662
466.093781
466.0595169
466.0483227
466.0443464
466.0423629
466.0408882
466.039563
466.0383233
466.037185
466.0362155
466.0355822
466.0356976
466.0375936
466.0438856
466.0612993
466.1074202
466.229188
466.5553087
467.4521019
470.0236946
477.9744507
489.9787557
483.7726484
478.1608854
473.5960238
470.3018224
468.2053308
467.0304206
466.450162
466.197036
466.0989977
466.0647662
466.0534262
466.0492828
466.047148
466.0455402
466.0440979
466.0427572
466.0415387
466.0405226
466.0399073
466.0401763
466.0425211
466.0499134
466.0698627
466.1216497
466.2557717
466.6079889
467.556859
470.2191942
478.2574487
489.9720787
483.7522576
478.1326043
473.5686221
470.2820134
468.1951452
467.0280855
466.4525669
466.2015972
466.1042294
466.0700382
466.0585497
466.0542325
466.0519389
466.0501912
466.0486264
466.0471813
466.045882
466.0448245
466.0442429
466.0447018
466.0475724
466.0562191
466.0789996
466.1369904
466.2843737
466.6640238
467.666398
470.4194149
478.5399346
489.9652928
483.7314492
478.1037279
473.5406271
470.2617315
468.1846418
467.0255692
466.4548903
466.2061386
466.1094718
466.0753299
466.0636906
466.0591926
466.0567326
466.0548383
466.0531458
466.0515932
466.0502138
466.0491216
466.0485927
466.0492841
466.0527679
466.0628406
466.0887747
466.1535442
466.3151364
466.7235794
467.7808512
470.6243704
478.8218543
489.9582632
483.7098746
478.0738168
473.5116311
470.2406739
468.173635
467.0227769
466.4570907
466.2106438
466.1147179
466.0806372
466.0688453
466.0641596
466.0615254
466.0594778
466.0576527
466.0559903
466.0545325
466.0534148
466.0529616
466.0539348
466.0581311
466.0698206
466.0992594
466.1714209
466.348211
466.7868289
467.9003546
470.8340748
479.103152
489.950804
483.6870593
478.042278
473.4810868
470.2184352
468.1618766
467.0195803
466.4591111
466.2150897
466.1199576
466.0859541
466.0740087
466.0691285
466.0663126
466.0641053
466.0621431
466.0603695
466.0588366
466.0577053
466.0573554
466.0586678
466.063689
466.077207
466.1105328
466.1907399
466.3837587
466.8539535
468.0250478
471.0485425
479.3837706
489.9426573
483.6623496
478.0083007
473.4482517
470.1944697
468.1490337
467.0158075
466.4608743
466.2194441
466.1251766
466.0912722
466.079174
466.0740931
466.0710883
466.0687153
466.0666125
466.0647273
466.0631247
466.0619947
466.0617812
466.0634993
466.0694729
466.0850542
466.1226824
466.2116312
466.4219518
466.9251439
468.155075
471.2677878
479.6636513
489.9334481
483.6348189
477.970753
473.4121023
470.1680323
468.1346558
467.011227
466.4622763
466.2236637
466.1303555
466.09658
466.0843323
466.0790453
466.075845
466.0733012
466.0710552
466.0690599
466.0673952
466.0662856
466.066248
466.0684487
466.0755189
466.0934237
466.1358054
466.2342366
466.4629751
467.0006006
468.2905859
471.4918263
479.9427342
489.9226466
483.6031452
477.9280311
473.3712047
470.1380938
468.1181284
467.0055262
466.4631773
466.2276897
466.1354675
466.1018619
466.0894714
466.0839746
466.0805733
466.0778549
466.0754647
466.0733627
466.0716468
466.0705812
466.0707666
466.0735392
466.0818688
466.1023855
466.1500109
466.2587118
466.5070278
467.0805364
468.4317367
471.7206741
480.220958
489.9093742
483.5652872
477.8777479
473.3234805
470.103195
468.0985973
466.9982778
466.4633879
466.2314425
466.1404762
466.1070964
466.0945753
466.0888673
466.0852615
466.0823664
466.0798332
466.0776308
466.0758782
466.0748862
466.0753507
466.0787983
466.0885718
466.11202
466.165421
466.2852289
466.5543263
467.1651786
468.5786919
471.9543491
480.4982606
489.8924501
483.5182697
477.8163851
473.2659021
470.0612515
468.0748687
466.9888961
466.4626528
466.2348155
466.1453326
466.112255
466.0996231
466.0937062
466.0898951
466.0868239
466.0841518
466.0818587
466.0800888
466.0792069
466.0800173
466.0842595
466.0956859
466.1224202
466.1821752
466.3139804
466.6051091
467.2547748
468.7316309
472.1928765
480.7745788
489.8692104
483.4566362
477.7380896
473.1937224
470.0091379
468.0452175
466.9765602
466.4606211
466.2376635
466.1499702
466.1172991
466.1045867
466.0984688
466.0944555
466.0912126
466.0884095
466.08604
466.0842784
466.0835518
466.0847879
466.0899636
466.1032803
466.1336951
466.2004339
466.3451847
466.6596432
467.349599
468.8907505
472.4362851
481.049849
489.8369328
483.3728606
477.6341813
473.0998962
469.9423229
468.0072182
466.9601499
466.456826
466.2397959
466.1543018
466.1221788
466.1094309
466.1031275
466.0989209
466.0955155
466.0925944
466.0901687
466.0884485
466.0879332
466.0896904
466.0959618
466.1114398
466.145976
466.2203874
466.3790983
466.7182408
467.4499754
469.0562989
472.6846476
481.3240094
489.7843825
483.2480526
477.4872647
472.9719914
469.8534746
467.9571959
466.9380521
466.4506173
466.240951
466.1582074
466.1268245
466.1141069
466.1076447
466.1032614
466.0997097
466.0966906
466.0942366
466.0926008
466.0923663
466.0947598
466.1023176
466.1202684
466.1594215
466.2422631
466.4160237
466.7812657
467.5562752
469.2285471
472.9380146
481.5969982
489.705248
483.0604355
477.2735181
472.7926193
469.7326292
467.8903699
466.9082578
466.4412147
466.2408232
466.1615507
466.1311609
466.1185647
466.1119842
466.1074507
466.1037772
466.1006881
466.0982434
466.0967473
466.0968803
466.1000499
466.1091205
466.1299059
466.1742398
466.2663562
466.4563555
466.8492059
467.6690381
469.4079933
473.196696
481.8687671
489.5356562
482.7258429
476.9315703
472.5261238
469.5622007
467.799164
466.8678193
466.4275228
466.2389836
466.1641308
466.1350688
466.1227202
466.1160819
466.1114391
466.1076803
466.1045614
466.1021768
466.1008923
466.1015021
466.1056191
466.1164723
466.1405135
466.1906687
466.2929953
466.5005142
466.9225421
467.7887121
469.5948731
473.4605507
482.1392595
489.2411419
482.165188
476.3966561
472.1364724
469.3261756
467.6775149
466.8146844
466.4088806
466.235212
466.1658675
466.1385192
466.1265682
466.1199465
466.1152452
466.111447
466.1083481
466.1060871
466.1051041
466.1063261
466.1115999
466.1245619
466.1523599
466.2090876
466.3227068
466.5492122
467.00221
467.9164849
469.7906284
473.73101
482.4084868
488.3775442
481.0418896
475.5155934
471.5662793
469.0065078
467.5208488
466.7479825
466.3851424
466.2294135
466.1666403
466.1413859
466.1299918
466.1234746
466.1187794
466.1150007
466.111986
466.1099284
466.1093569
466.1113513
466.1180219
466.1334517
466.1655354
466.2295898
466.3555227
466.6022826
467.0875858
468.0508648
469.9924611
474.0045108
482.6764168
488.8888611
481.8060738
476.2485941
472.1431444
469.3949161
467.7486951
466.8666212
466.4414612
466.2550049
466.1788426
466.1482982
466.1349206
466.1276267
466.1225619
466.1185499
466.1153545
466.1131445
466.1124424
466.1143299
466.1209279
466.1363462
466.1685395
466.2329529
466.3597651
466.6084951
467.0980764
468.0706081
470.0326219
474.0924957
482.8861731
489.3136367
482.3342007
476.7558131
472.5682232
469.7001312
467.938258
466.9704349
466.4930329
466.2794211
466.1908871
466.1552621
466.1399148
466.13183
466.1263849
466.1221339
466.1187555
466.1163928
466.1155625
466.117349
466.1238856
466.1393115
466.1716447
466.2364633
466.3642216
466.615013
467.1089863
468.0908966
470.0734744
474.1813235
483.0859413
489.5784111
482.7420177
477.1383746
472.8901528
469.9391219
468.092981
467.0587947
466.538757
466.3019519
466.2024241
466.1621203
466.1448982
466.1360381
466.1302125
466.1257209
466.1221586
466.1196443
466.1186895
466.1203829
466.1268723
466.1423303
466.1748443
466.2401339
466.3689419
466.621954
467.1205583
468.1122033
470.1158948
474.2723157
483.2780895
489.7500997
483.0663743
477.4489312
473.1511729
470.1359801
468.2238786
467.1358955
466.5799815
466.3229678
466.2135484
466.1689057
466.1498931
466.1402714
466.134064
466.1293288
466.1255806
466.1229141
466.1218363
466.1234413
466.1298935
466.1454014
466.1781259
466.2439347
466.3738675
466.6292139
467.1326182
468.1342492
470.1594491
474.3646852
483.4623933
489.8723642
483.3381773
477.718038
473.3756392
470.3055853
468.3383149
467.2047777
466.6177623
466.3427724
466.2243265
466.1756236
466.154893
466.1445227
466.1379331
466.132952
466.1290161
466.1261968
466.1249971
466.1265173
466.1329397
466.1485113
466.1814698
466.2478356
466.3789529
466.6367256
467.1450697
468.1569062
470.2039794
474.4581448
483.6392486
489.9666305
483.5703737
477.9590033
473.57689
470.45741
468.4415563
467.2678651
466.653048
466.3616858
466.2348512
466.1822962
466.1599009
466.1487907
466.1418178
466.1365885
466.1324634
466.1294905
466.1281694
466.1296072
466.1360055
466.1516509
466.1848608
466.251812
466.3841585
466.6444272
467.1578199
468.1800419
470.2493015
474.5523481
483.8088951
490.0439616
483.7729005
478.1796418
473.7627719
470.5974228
468.5371369
467.326881
466.6865508
466.3799603
466.2451986
466.188941
466.1649178
466.1530724
466.1457144
466.1402349
466.135919
466.1327919
466.1313497
466.132707
466.1390853
466.1548123
466.1882869
466.2558454
466.3894562
466.6522761
467.170808
468.2035787
470.2952986
474.6470599
483.9716509
490.1100322
483.9521894
478.384228
473.9377889
470.7293875
468.627449
467.3830621
466.7188103
466.3977982
466.2554333
466.1955748
466.1699459
466.1573661
466.1496205
466.1438887
466.1393808
466.1360988
466.1345357
466.1358139
466.1421754
466.1579901
466.19174
466.2599231
466.3948265
466.6602522
467.184048
468.2275027
470.3418605
474.7420229
484.1278271
490.1680451
484.1130201
478.5755317
474.1046506
470.8557141
468.7141125
467.4372848
466.750225
466.4153545
466.2656072
466.2022116
466.1749868
466.1616703
466.1535339
466.1475479
466.1428468
466.1394094
466.1377255
466.1389258
466.1452731
466.1611806
466.1952144
466.2640372
466.4002786
466.6683677
467.1974684
468.2517322
470.3889519
474.8371152
484.2777408
490.2199422
484.2588851
478.75543
474.2649985
470.9779517
468.7982316
467.4901735
466.7810896
466.4327485
466.2757616
466.2088629
466.1800427
466.1659841
466.1574533
466.1512109
466.1463156
466.1427225
466.140918
466.1420413
466.1483767
466.1643814
466.198711
466.2681995
466.4057953
466.6765802
467.2110484
468.2762452
470.4365403
474.9322362
484.4217004
490.2670058
484.3924288
478.9253229
474.419864
471.0971067
468.880565
467.5421751
466.811623
466.4500717
466.2859293
466.2155386
466.1851151
466.1703069
466.1613773
466.1548767
466.1497864
466.1460371
466.1441123
466.1451596
466.1514859
466.167596
466.2022309
466.2723948
466.4113651
466.6848791
467.2247764
468.3010306
470.4846025
475.0272933
484.5600028
490.3101358
484.5156751
479.0863119
474.5699171
471.2138359
468.9616376
467.5936123
466.8419884
466.4673949
466.2961368
466.2222468
466.1902057
466.1746384
466.1653053
466.1585444
466.1532582
466.1493527
466.1473079
466.1482812
466.1546021
466.1708212
466.2057685
466.2766191
466.4169827
466.6932582
467.2386459
468.3260827
470.5331197
475.1222015
484.692931
490.349995
484.6302015
479.2393045
474.7156148
471.3285699
469.0418144
467.6447201
466.8723089
466.4847731
466.3064056
466.2289946
466.1953162
466.1789782
466.1692365
466.1622132
466.15673
466.1526687
466.1505051
466.1514058
466.1577237
466.1740557
466.2093218
466.2808699
466.4226448
466.7017137
467.2526538
468.351399
470.5820746
475.2168832
484.8207528
490.3870886
484.7372537
479.3850685
474.8572866
471.4415917
469.1213494
467.6956705
466.9026782
466.5022498
466.3167531
466.235788
466.2004469
466.1833258
466.1731701
466.1658826
466.1602026
466.1559854
466.1537036
466.1545329
466.1608499
466.1772985
466.2128896
466.2851454
466.4283492
466.7102434
467.2667984
468.3769779
470.6314498
475.3112675
484.9437216
490.4218109
484.8378303
479.5242664
474.9951849
471.5530868
469.2004191
467.7465897
466.9331666
466.519849
466.3271848
466.2426367
466.2056061
466.1876849
466.1771074
466.169553
466.1636754
466.1593026
466.1569031
466.1576622
466.1639803
466.1805489
466.2164708
466.2894443
466.4340944
466.7188459
467.2810789
468.4028184
470.681228
475.4052903
485.0620766
490.4544764
484.9327413
479.6574755
475.129514
471.6631762
469.2791436
467.7975646
466.9637558
466.5376083
466.3377562
466.2495576
466.2107968
466.1920555
466.1810482
466.173224
466.1671482
466.1626198
466.1601032
466.1607932
466.1671144
466.1838065
466.2200649
466.2937657
466.4398793
466.72752
467.2954951
468.4289194
470.731391
475.4988929
485.1760439
490.4853396
485.0226516
479.7852025
475.260448
471.7719371
469.357595
467.8485394
466.9945649
466.5555991
466.3484716
466.2565527
466.2160196
466.1964379
466.1849922
466.1768953
466.1706206
466.1659367
466.1633038
466.1639258
466.170252
466.1870707
466.2236712
466.2981089
466.4457031
466.7362653
467.3100468
468.4552796
470.7819204
475.5920226
485.2858367
490.5146089
485.108113
479.9078948
475.3881406
471.8794177
469.435814
467.8995424
467.0256769
466.5738286
466.3593351
466.263624
466.2212755
466.200832
466.1889393
466.1805668
466.1740925
466.1692533
466.1665045
466.1670597
466.1733928
466.1903413
466.2272893
466.3024734
466.4515651
466.7450812
467.3247341
468.4818972
470.832797
475.6846314
485.3916567
490.542458
485.1895883
480.0259481
475.51273
471.9856361
469.5136738
467.9507938
467.0571015
466.5923028
466.3703501
466.2707735
466.2265653
466.2052384
466.1928896
466.1842383
466.1775636
466.1725693
466.1697053
466.1701948
466.1765366
466.1936181
466.2309188
466.3068586
466.457465
466.7539675
467.3395569
468.5087705
470.8840018
475.7766764
485.4936944
490.5690321
485.2674688
480.139714
475.6343437
472.0906026
469.5912227
468.0023233
467.0888465
466.6110268
466.3815199
466.2780032
466.23189
466.2096572
466.1968429
466.1879097
466.1810338
466.1758846
466.172906
466.1733309
466.1796832
466.1969008
466.2345595
466.3112642
466.4634022
466.7629239
467.3545154
468.5358973
470.9355153
475.8681189
485.5921303
490.5944544
485.3420884
480.2495054
475.7531005
472.1943256
469.6685188
468.0541237
467.1209164
466.6300044
466.3928474
466.2853149
466.2372507
466.2140889
466.2007995
466.191581
466.184503
466.179199
466.1761066
466.1764679
466.1828325
466.2001891
466.238211
466.3156899
466.4693766
466.7719505
467.3696097
468.5632749
470.9873183
475.9589242
485.6871346
490.6188301
485.4137343
480.3556022
475.8691128
472.2968124
469.745597
468.1061869
467.1533133
466.6492386
466.4043353
466.2927104
466.2426483
466.218534
466.2047595
466.195252
466.1879713
466.1825126
466.1793069
466.1796057
466.1859845
466.2034831
466.2418733
466.3201355
466.4753879
466.7810471
467.3848399
468.5909009
471.0393914
476.0490615
485.7788688
490.6422499
485.4826555
480.4582549
475.9824874