/*--------------------------------*- C++ -*----------------------------------*\
  =========                 |
  \\      /  F ield         | OpenFOAM: The Open Source CFD Toolbox
   \\    /   O peration     | Website:  https://openfoam.org
    \\  /    A nd           | Version:  8
     \\/     M anipulation  |
\*---------------------------------------------------------------------------*/
FoamFile
{
    version     2.0;
    format      ascii;
    class       volVectorField;
    location    "900";
    object      U;
}
// * * * * * * * * * * * * * * * * * * * * * * * * * * * * * * * * * * * * * //

dimensions      [0 1 -1 0 0 0 0];

internalField   nonuniform List<vector> 
6300
(
(-2.745113093e-05 -1.23458913e-05 5.653534885e-13)
(9.535004512e-05 -2.28106462e-05 3.277766177e-13)
(0.0003811092265 -2.588247504e-05 4.924906708e-13)
(0.0008440513397 -2.597775913e-05 5.39859328e-13)
(0.001512773712 -2.555776095e-05 4.873585201e-13)
(0.002427477709 -2.527865432e-05 3.540585593e-13)
(0.003639347507 -2.516245101e-05 4.094917865e-13)
(0.005208045233 -2.493155395e-05 4.774245292e-13)
(0.007198760975 -2.429960469e-05 7.577691316e-13)
(0.00968002853 -2.307971099e-05 9.951193992e-13)
(0.01272246869 -2.116882105e-05 6.919247514e-13)
(0.01639811963 -1.851333925e-05 7.686246208e-13)
(0.02078004135 -1.508896359e-05 8.523611458e-13)
(0.02594203918 -1.089011743e-05 9.234422209e-13)
(0.03195845088 -5.923339727e-06 5.87710872e-13)
(0.03890397748 -2.029860607e-07 -8.466020795e-15)
(0.04685354843 6.251060768e-06 4.932821883e-13)
(0.05588221608 1.341347765e-05 1.224004889e-12)
(0.06606507161 2.125090667e-05 1.288610217e-12)
(0.07747717805 2.971546274e-05 1.348029755e-12)
(0.09019350959 3.87323445e-05 7.668621249e-13)
(0.1042888863 4.817767486e-05 -1.025301731e-13)
(0.1198378909 5.784057732e-05 9.663375233e-14)
(0.1369147764 6.735949785e-05 7.091980766e-13)
(0.155593534 7.610124392e-05 1.448890324e-12)
(0.175949279 8.289294198e-05 8.101610092e-13)
(0.1980680958 8.575675822e-05 7.936955638e-14)
(0.2221059983 8.277896678e-05 -8.358255838e-14)
(0.2486179414 7.187979734e-05 6.20743921e-24)
(0.2804625988 5.261582091e-06 2.946320813e-28)
(6.482462774e-06 2.097310688e-06 1.211417344e-12)
(0.000183020695 1.96109029e-07 1.336221847e-12)
(0.0005235570191 1.950508853e-06 1.146240109e-12)
(0.001047061506 3.26443145e-06 1.111942741e-12)
(0.001784041089 3.80210382e-06 1.389932168e-12)
(0.002776172856 4.075064383e-06 1.6674911e-12)
(0.004075322763 4.76201797e-06 1.476101677e-12)
(0.005740852847 6.39293659e-06 1.116161441e-12)
(0.007836766762 9.142364092e-06 7.651966292e-13)
(0.01042976856 1.289349931e-05 1.445063526e-12)
(0.01358824238 1.741871477e-05 2.120395465e-12)
(0.01738174273 2.249338429e-05 1.557378359e-12)
(0.0218806893 2.792577445e-05 1.678822871e-12)
(0.02715614091 3.355411207e-05 1.805746187e-12)
(0.0332796131 3.924082752e-05 1.958339811e-12)
(0.04032293094 4.486967752e-05 1.783955868e-12)
(0.04835811244 5.034408744e-05 1.921989177e-12)
(0.05745727823 5.558501037e-05 2.411957846e-12)
(0.06769258235 6.052664631e-05 1.578257258e-12)
(0.07913616016 6.51087709e-05 4.684589714e-13)
(0.09186008456 6.926353749e-05 1.566649387e-12)
(0.105936324 7.289468905e-05 2.36711891e-12)
(0.1214366973 7.584750353e-05 1.557061458e-12)
(0.1384328505 7.786554284e-05 2.919256644e-13)
(0.1569964743 7.848983788e-05 8.099382659e-13)
(0.177201069 7.682646801e-05 2.193799074e-12)
(0.1991327248 7.181504664e-05 1.88398136e-12)
(0.2229501357 6.494571539e-05 -1.612809032e-13)
(0.2492104866 5.854906281e-05 -1.836490233e-13)
(0.2807646401 1.060017281e-05 0)
(2.893310862e-05 7.788523284e-06 2.320718085e-12)
(0.0002444244379 1.770779714e-05 2.618033059e-12)
(0.0006248979875 2.761320207e-05 2.418909299e-12)
(0.001191142011 3.350127407e-05 3.106823342e-12)
(0.001974243665 3.603971406e-05 2.84636323e-12)
(0.003016571612 3.679733016e-05 2.393368878e-12)
(0.004370723693 3.747512137e-05 3.165320794e-12)
(0.006096420928 3.933040561e-05 3.274428711e-12)
(0.008257345934 4.284332363e-05 2.720569395e-12)
(0.01091923957 4.785361039e-05 3.047494036e-12)
(0.01414911713 5.391835587e-05 4.796315499e-12)
(0.01801496673 6.056700421e-05 4.864697559e-12)
(0.02258555394 6.739140552e-05 3.962267329e-12)
(0.02793023791 7.405394755e-05 4.306190066e-12)
(0.03411880509 8.027871954e-05 4.42877883e-12)
(0.04122132973 8.584507758e-05 3.947314122e-12)
(0.04930806418 9.058408138e-05 3.104800108e-12)
(0.05844935501 9.437598823e-05 2.456113121e-12)
(0.06871558208 9.71467797e-05 3.653491509e-12)
(0.08017711206 9.886248634e-05 5.23730229e-12)
(0.09290426526 9.95193119e-05 3.31724765e-12)
(0.1069672839 9.912780134e-05 1.078478771e-12)
(0.1224363015 9.768978397e-05 3.060716946e-12)
(0.139381345 9.516189497e-05 2.96226137e-12)
(0.1578726004 9.135252933e-05 1.702074328e-12)
(0.1779822872 8.572409835e-05 1.497253326e-12)
(0.1997955288 7.791988671e-05 3.832869243e-12)
(0.2234699764 7.049974904e-05 2.483001673e-12)
(0.2495631791 6.423432711e-05 -3.180077773e-13)
(0.2809469746 1.82181453e-05 1.340825508e-23)
(4.888295678e-05 1.248876411e-05 2.972367853e-12)
(0.0003082414942 3.245929206e-05 3.753122413e-12)
(0.0007370228501 5.081889567e-05 3.460145723e-12)
(0.001355223228 6.290596434e-05 3.185695596e-12)
(0.002193560513 6.930612704e-05 4.056386111e-12)
(0.003294809039 7.20577265e-05 4.136812304e-12)
(0.004712389349 7.362621063e-05 3.486817532e-12)
(0.006506662838 7.601423059e-05 4.766902117e-12)
(0.008741259748 8.019448045e-05 4.988738204e-12)
(0.01148106735 8.617694424e-05 3.032133581e-12)
(0.01479166995 9.346031102e-05 3.670619185e-12)
(0.01873932035 0.0001014222402 5.722729056e-12)
(0.02339091233 0.0001094930816 5.371591251e-12)
(0.02881387076 0.0001171936055 5.785525794e-12)
(0.03507601219 0.000124132092 6.201321465e-12)
(0.04224541724 0.0001299984222 5.797513913e-12)
(0.05039032836 0.000134560693 4.133537383e-12)
(0.05957907352 0.0001376630023 4.180421797e-12)
(0.06988001091 0.0001392222921 6.722174365e-12)
(0.08136149264 0.0001392222835 5.150150532e-12)
(0.09409183905 0.0001377025636 4.462133997e-12)
(0.1081393196 0.0001347398013 6.819859312e-12)
(0.1235721431 0.0001304188424 4.158809939e-12)
(0.1404584939 0.0001247841977 1.518821118e-12)
(0.1588668609 0.0001177207073 4.579507777e-12)
(0.1788680264 0.0001087740683 4.309907691e-12)
(0.200546087 9.774005592e-05 2.117776625e-12)
(0.2240585652 8.706132686e-05 2.426991268e-13)
(0.2499679632 7.619883098e-05 0)
(0.2811677489 2.386133847e-05 -6.195461641e-26)
(6.918981665e-05 1.700715834e-05 4.702311495e-12)
(0.0003744858466 4.612027119e-05 5.623475069e-12)
(0.0008545074881 7.273977645e-05 4.966243589e-12)
(0.00152803522 9.157600187e-05 4.683316725e-12)
(0.002424928498 0.0001028985961 5.333311849e-12)
(0.003587909997 0.0001088455575 5.475625851e-12)
(0.00507095966 0.0001123222966 5.720795021e-12)
(0.006935076772 0.0001159087061 4.861598785e-12)
(0.009244015894 0.0001210687455 6.663369758e-12)
(0.01206201019 0.0001280758916 7.057467294e-12)
(0.01545334549 0.0001364740914 5.558070748e-12)
(0.01948260428 0.0001455657783 7.205885954e-12)
(0.02421483853 0.0001546699874 6.859734211e-12)
(0.02971555533 0.0001631993251 7.351691608e-12)
(0.0360506142 0.0001706688268 8.037291596e-12)
(0.04328611436 0.0001766930264 7.403082851e-12)
(0.05148830096 0.0001809836669 7.967005128e-12)
(0.06072349621 0.0001833479418 7.587542603e-12)
(0.07105805279 0.0001836849171 6.634238792e-12)
(0.08255832603 0.0001819781467 5.659818357e-12)
(0.09529065971 0.0001782820486 9.000943827e-12)
(0.1093213846 0.0001726986451 6.733246809e-12)
(0.1247168319 0.0001653423749 5.076710043e-12)
(0.1415434063 0.0001562831166 5.414147107e-12)
(0.1598679809 0.0001454240386 1.981364469e-12)
(0.1797599824 0.0001323453115 1.807574053e-12)
(0.2013026124 0.0001168924344 1.708653042e-12)
(0.2246538598 0.0001013073255 4.937475424e-12)
(0.2503822897 8.459522806e-05 4.962498649e-12)
(0.2813984438 2.719854984e-05 -6.223110652e-13)
(9.026565747e-05 2.149634314e-05 4.904802859e-12)
(0.0004435616926 5.945176035e-05 6.34541324e-12)
(0.0009771910226 9.41571216e-05 6.243115638e-12)
(0.001708738549 0.0001199287479 4.999468189e-12)
(0.002667014633 0.0001367615628 5.228654233e-12)
(0.003894358417 0.0001467339288 6.861225184e-12)
(0.00544501289 0.0001529683835 7.206726533e-12)
(0.007380483495 0.0001584446671 7.680214974e-12)
(0.009764700164 0.0001650420578 6.428755542e-12)
(0.01266137952 0.0001733128595 7.444485164e-12)
(0.01613363156 0.000182899874 5.095007304e-12)
(0.02024444437 0.0001930807232 6.278707187e-12)
(0.02505706994 0.0002030992803 8.353201917e-12)
(0.03063512323 0.0002122849621 6.824775176e-12)
(0.03704252694 0.0002200771431 7.139521931e-12)
(0.04434341703 0.0002260267804 8.904146104e-12)
(0.0526020601 0.0002297958426 1.006342381e-11)
(0.0618827926 0.0002311562537 6.315976059e-12)
(0.0722499834 0.0002299861092 8.241157555e-12)
(0.08376801703 0.0002262614875 1.004674609e-11)
(0.09650129219 0.0002200408155 7.537948661e-12)
(0.1105142383 0.000211439243 8.187622525e-12)
(0.1258713521 0.0002005904733 6.314591619e-12)
(0.1426373093 0.0001875878269 6.367400031e-12)
(0.1608774067 0.0001723674996 2.32831283e-12)
(0.1806597384 0.0001545728577 1.849318206e-12)
(0.2020666545 0.0001341291261 6.284062726e-12)
(0.2252568502 0.0001132085244 1.78597126e-12)
(0.2508051669 9.07847245e-05 4.263568984e-13)
(0.2816357551 2.949571093e-05 -7.635796078e-13)
(0.0001125979133 2.616437046e-05 5.858709587e-12)
(0.0005164095458 7.307870174e-05 7.654636944e-12)
(0.00110609226 0.0001158709864 7.560704161e-12)
(0.001898156987 0.0001486828901 7.511368815e-12)
(0.002920373261 0.0001713602703 7.193920904e-12)
(0.004214553506 0.0001858960195 8.274833425e-12)
(0.005834990528 0.0001955120951 8.721811238e-12)
(0.007843532819 0.0002034527531 9.310160501e-12)
(0.0103042501 0.0002119212288 9.848559318e-12)
(0.01328040953 0.0002217239926 1.049060269e-11)
(0.01683403641 0.0002326219553 1.109029951e-11)
(0.02102659359 0.0002438979381 9.087345774e-12)
(0.02591957594 0.000254745514 9.818385011e-12)
(0.0315747351 0.0002644291166 1.104002269e-11)
(0.03805407895 0.0002723261178 1.072577147e-11)
(0.04541980062 0.0002779342479 7.754557469e-12)
(0.05373420787 0.000280873388 8.148510161e-12)
(0.06305967171 0.0002808855226 8.068710576e-12)
(0.07345859996 0.000277831427 8.173911257e-12)
(0.0849934298 0.0002716823224 8.934906269e-12)
(0.09772664252 0.0002625035805 8.182605834e-12)
(0.1117207946 0.0002504284276 9.615278739e-12)
(0.1270385803 0.0002356194264 8.128068444e-12)
(0.1437429704 0.0002182110843 7.094879061e-12)
(0.1618977029 0.0001982005067 7.92019603e-12)
(0.1815695375 0.0001753279059 7.079123567e-12)
(0.2028399935 0.0001496415687 2.164440521e-12)
(0.225868579 0.0001233610747 1.011369214e-12)
(0.2512363984 9.562956561e-05 -5.128944252e-13)
(0.2818784889 3.121022347e-05 -3.55063054e-23)
(0.0001364692373 3.111718348e-05 8.334935608e-12)
(0.0005936229509 8.736632862e-05 9.037761024e-12)
(0.001241908563 0.0001384235354 8.888723331e-12)
(0.002096890599 0.0001784180981 8.88563963e-12)
(0.003185396207 0.0002071761063 7.210789974e-12)
(0.004548692627 0.0002266413001 7.645865338e-12)
(0.0062409976 0.0002400888291 1.026445725e-11)
(0.008324354084 0.0002509393697 1.093659036e-11)
(0.01086289484 0.0002616398681 9.815549214e-12)
(0.01391945328 0.0002732117306 9.492759609e-12)
(0.01755503151 0.0002855333754 1.0909125e-11)
(0.02182962601 0.0002979090295 1.043530059e-11)
(0.02680301742 0.0003094990975 1.129626492e-11)
(0.03253512467 0.0003195170777 1.271921118e-11)
(0.03908606522 0.0003272897528 1.19966769e-11)
(0.04651611142 0.0003322714144 1.341762422e-11)
(0.05488563324 0.0003340484961 1.268267346e-11)
(0.06425505824 0.0003323409032 1.442260844e-11)
(0.07468485444 0.0003269997641 3.985147894e-12)
(0.08623553571 0.0003179994105 5.410346773e-12)
(0.09896768861 0.0003054214748 8.631609318e-12)
(0.112942022 0.000289428993 1.035169389e-11)
(0.1282194477 0.000270229198 9.404405915e-12)
(0.1448612493 0.0002480192321 3.601288339e-12)
(0.1629296073 0.0002228845873 3.047266144e-12)
(0.1824899412 0.0001946941991 1.589975901e-12)
(0.2036229405 0.0001636626397 9.305853725e-12)
(0.2264889795 0.0001321391633 7.115573959e-12)
(0.2516753867 9.952121071e-05 2.079625379e-13)
(0.2821258061 3.253345863e-05 -1.045588049e-12)
(0.0001620328722 3.640592654e-05 8.08361325e-12)
(0.0006755866072 0.0001025074269 1.268367003e-11)
(0.001385158622 0.0001621371992 1.027531998e-11)
(0.00230546029 0.0002095216903 1.032553453e-11)
(0.003462501433 0.0002445735891 1.042535395e-11)
(0.004897058388 0.0002692446533 8.576904043e-12)
(0.006663221404 0.000286858322 9.244883922e-12)
(0.008823114763 0.0003009613243 1.077423647e-11)
(0.01144084535 0.0003141827678 1.306732175e-11)
(0.01457879639 0.0003277184675 1.398469544e-11)
(0.01829698205 0.0003415537238 1.229548742e-11)
(0.02265397969 0.0003550214391 1.184658787e-11)
(0.02770789556 0.0003672607963 1.275978372e-11)
(0.03351684589 0.0003774456763 1.446533546e-11)
(0.04013908329 0.0003848623999 1.347496367e-11)
(0.047632982 0.0003889313271 1.535447156e-11)
(0.05605699613 0.0003892145701 1.060307863e-11)
(0.06546963104 0.0003854191284 1.064671173e-11)
(0.0759294365 0.0003773958639 1.568605246e-11)
(0.08749502449 0.0003651324443 9.514963094e-12)
(0.1002251088 0.0003487384491 1.032835416e-11)
(0.114178569 0.0003284206138 1.088321351e-11)
(0.1294145522 0.0003044478462 4.106049754e-12)
(0.1459926614 0.0002771008985 9.638438324e-12)
(0.1639735178 0.0002465784844 1.097906723e-11)
(0.1834211856 0.0002129069269 1.34511987e-12)
(0.2044155143 0.0001765029904 2.351319636e-12)
(0.2271177845 0.0001398951096 9.784268962e-13)
(0.2521215451 0.0001027558346 8.53000287e-12)
(0.2823770727 3.360104159e-05 8.083100924e-12)
(0.0001893999564 4.206234922e-05 7.239362817e-12)
(0.0007626048431 0.0001186146207 1.211529701e-11)
(0.001536288391 0.0001872125805 1.428105171e-11)
(0.00252436801 0.0002422532023 1.175963062e-11)
(0.003752162986 0.0002838187569 1.189654796e-11)
(0.005260051562 0.0003139287956 1.228800517e-11)
(0.007101997917 0.0003359715272 1.022676044e-11)
(0.009340131024 0.0003535954887 1.39949055e-11)
(0.01203844781 0.0003695682938 1.484750815e-11)
(0.01525884628 0.0003852242214 1.340492955e-11)
(0.01906036714 0.0004006406432 1.371151234e-11)
(0.02350020398 0.0004151808091 1.316281742e-11)
(0.02863482296 0.0004279709909 1.095593915e-11)
(0.03452056663 0.000438154768 1.144011483e-11)
(0.04121384743 0.000444987209 1.488670996e-11)
(0.04877116384 0.0004478638557 1.665735853e-11)
(0.05724907547 0.0004463317288 1.787488187e-11)
(0.06670418582 0.0004400944849 1.095014884e-11)
(0.07719314745 0.0004290128356 1.240149217e-11)
(0.08877268963 0.0004130987798 1.619448114e-11)
(0.1014996717 0.000392502121 1.217508117e-11)
(0.1154311614 0.000367487411 1.120845688e-11)
(0.1306245504 0.0003384017793 1.848414877e-11)
(0.1471377658 0.0003056288357 9.990198953e-12)
(0.1650298616 0.0002695023887 1.154733988e-11)
(0.1843635264 0.0002302301289 9.174215572e-12)
(0.2052177621 0.0001884568452 2.205954745e-12)
(0.2277548058 0.0001469142504 1.869283754e-12)
(0.2525744736 0.000105542243 -5.517707288e-13)
(0.2826318869 3.449914413e-05 -1.917722081e-13)
(0.0002186677817 4.811038786e-05 1.35265409e-11)
(0.0008549444764 0.0001357639689 1.364941204e-11)
(0.001695698953 0.000213785643 1.344124862e-11)
(0.002754091727 0.000276795386 1.611411318e-11)
(0.004054872014 0.0003251105629 1.339993064e-11)
(0.005638132229 0.0003608742084 1.191939883e-11)
(0.007557747137 0.0003875656166 1.120787243e-11)
(0.009875806648 0.0004089276829 1.21474975e-11)
(0.01265612548 0.0004278375921 1.414376399e-11)
(0.01596007239 0.00044573864 1.47513745e-11)
(0.01984571472 0.0004627846918 1.817632496e-11)
(0.02436888631 0.0004783677757 1.909132645e-11)
(0.02958444231 0.0004916068986 1.667507544e-11)
(0.035546978 0.0005016231019 1.594914477e-11)
(0.04231108874 0.0005076485535 1.232594859e-11)
(0.04993141901 0.0005090626589 1.326191596e-11)
(0.0584626541 0.0005054064223 1.848252729e-11)
(0.06795951592 0.000496389709 1.91318931e-11)
(0.07847677813 0.0004818933164 1.269146484e-11)
(0.09006930613 0.000461964677 5.34245473e-12)
(0.1027921202 0.0004368059715 1.32767814e-11)
(0.116700489 0.0004067533427 1.226426654e-11)
(0.1318500581 0.0003722476176 7.15614801e-12)
(0.1482970773 0.0003337924863 1.011512061e-11)
(0.1660990214 0.0002918755062 1.080945284e-11)
(0.1853171881 0.000246904679 3.465131551e-12)
(0.2060297268 0.0001997691952 2.059879901e-12)
(0.2283999114 0.0001534114345 1.204391001e-11)
(0.2530339032 0.0001080218896 9.568637955e-12)
(0.2828899883 3.528111611e-05 -1.797989827e-12)
(0.0002499306421 5.457123433e-05 1.163172488e-11)
(0.0009528572003 0.0001540156088 1.843781148e-11)
(0.001863768555 0.0002419594138 1.495652771e-11)
(0.002995094762 0.0003132876007 1.307205657e-11)
(0.004371129157 0.0003686066179 1.493340013e-11)
(0.006031798881 0.0004102331074 1.852960793e-11)
(0.008030949145 0.0004417674452 1.583723309e-11)
(0.010430613 0.0004670498373 1.321870262e-11)
(0.01329436433 0.0004890492689 1.536734768e-11)
(0.01668299723 0.0005092951854 1.604498069e-11)
(0.02065359531 0.0005280034857 1.538999273e-11)
(0.0252606479 0.0005445917548 1.770218564e-11)
(0.03055742239 0.0005581755037 1.823405343e-11)
(0.03659679031 0.0005678597964 1.304510905e-11)
(0.04343155166 0.0005728614363 1.310911243e-11)
(0.05111451708 0.0005725519384 1.899460657e-11)
(0.05969851718 0.0005664751007 1.957185222e-11)
(0.06923641065 0.0005543564134 2.118213937e-11)
(0.07978111021 0.000536106771 2.107707126e-11)
(0.09138563278 0.0005118199216 1.280942375e-11)
(0.1041031752 0.0004817622919 6.351542139e-12)
(0.1179872166 0.000446354618 1.329258356e-11)
(0.1330916615 0.0004061455525 2.216651267e-11)
(0.1494710804 0.000361774104 1.225814372e-11)
(0.1671813585 0.0003138972309 3.703725648e-12)
(0.1862823856 0.0002631375617 3.384514182e-12)
(0.206851472 0.0002106372923 6.415173604e-13)
(0.2290530307 0.0001595473681 2.0194741e-12)
(0.253499668 0.0001102926129 1.626177021e-12)
(0.283151208 3.598159998e-05 -2.077091451e-12)
(0.0002832848296 6.146568675e-05 1.013302456e-11)
(0.001056592177 0.0001734238043 1.706534517e-11)
(0.002040867771 0.0002718214496 2.010379912e-11)
(0.003247835877 0.0003518462951 1.984135127e-11)
(0.004701444504 0.0004144410027 1.645482559e-11)
(0.006441579766 0.0004621409797 1.463736017e-11)
(0.008522131383 0.0004986983755 1.498869366e-11)
(0.0110050771 0.0005280598503 1.424227331e-11)
(0.01395370563 0.0005532765483 1.959450597e-11)
(0.01742819246 0.0005759471091 2.550974642e-11)
(0.02148462114 0.0005963369703 2.180400855e-11)
(0.02617614424 0.0006138855062 1.916117601e-11)
(0.03155445987 0.0006277073007 1.970388626e-11)
(0.0376707361 0.0006368970643 1.979115206e-11)
(0.04457599753 0.000640663166 1.874542271e-11)
(0.05232123968 0.0006383769887 1.548473687e-11)
(0.06095745692 0.0006295935969 1.406798243e-11)
(0.07053566169 0.0006140632108 2.319802575e-11)
(0.08110692221 0.0005917366428 2.220653064e-11)
(0.0927224221 0.000562764452 2.304419674e-11)
(0.1054335462 0.0005274886804 2.086424174e-11)
(0.1192919939 0.0004864268208 1.429244714e-11)
(0.1343499319 0.0004402482509 6.22027722e-12)
(0.1506602477 0.0003897404741 7.375846301e-12)
(0.1682772265 0.0003357426699 2.251499684e-12)
(0.187259343 0.0002791024085 1.261925904e-11)
(0.2076830922 0.0002212180877 9.519704387e-12)
(0.2297141567 0.0001654427335 1.864459239e-12)
(0.2539716828 0.0001124234585 1.494709737e-12)
(0.2834154398 3.662387526e-05 -2.354759427e-12)
(0.0003188305098 6.881508205e-05 1.690435515e-11)
(0.0011664025 0.0001940416478 1.479730899e-11)
(0.002227368375 0.000303453031 1.616356029e-11)
(0.003512776365 0.0003925768415 1.577723431e-11)
(0.00504633936 0.0004627354983 1.803431817e-11)
(0.006868028166 0.0005167245238 2.235412865e-11)
(0.009031859961 0.0005584780106 2.313044974e-11)
(0.01159977329 0.0005920617644 1.986405838e-11)
(0.01463473932 0.0006206052295 1.650228243e-11)
(0.01819627517 0.0006457642881 1.927773449e-11)
(0.02233944438 0.0006678437132 1.991159247e-11)
(0.02711606506 0.0006863009913 2.053227538e-11)
(0.03257628016 0.0007002516776 2.10635995e-11)
(0.03876957175 0.0007087850821 2.173732883e-11)
(0.04574520673 0.0007111075909 1.943983108e-11)
(0.05355238309 0.0007065978073 2.470120403e-11)
(0.06224027536 0.0006948302113 1.479976781e-11)
(0.07185806653 0.00067558858 1.064689408e-11)
(0.08245499481 0.0006488731404 6.800978247e-12)
(0.09408042405 0.0006149013765 1.025176957e-11)
(0.1067839385 0.000574101697 6.075328473e-12)
(0.1206154646 0.0005270995159 1.52622732e-11)
(0.135625434 0.0004746965916 2.314048699e-11)
(0.1518650481 0.0004178404351 2.653248343e-11)
(0.1693869846 0.0003575628445 2.190448593e-11)
(0.1882483011 0.0002949433667 1.387560412e-11)
(0.2085247198 0.0002316362836 1.715634827e-13)
(0.2303833361 0.0001711888878 1.70968993e-12)
(0.2544499271 0.0001144638972 -3.783454493e-13)
(0.283682623 3.722354453e-05 -2.630747692e-12)
(0.0003566722721 7.664164447e-05 1.690250057e-11)
(0.00128254813 0.000215923169 2.017845291e-11)
(0.002423648577 0.0003369339029 1.983609264e-11)
(0.003790385072 0.0004355801582 2.366870733e-11)
(0.005406348179 0.000513606277 1.963569225e-11)
(0.007311720577 0.0005741066935 1.740142497e-11)
(0.009560735107 0.0006212266689 1.776011595e-11)
(0.01221531758 0.0006591658132 1.842776423e-11)
(0.01533809993 0.0006911321062 1.754499902e-11)
(0.01898790529 0.0007188307292 2.045910539e-11)
(0.02321875618 0.0007425978854 2.127180861e-11)
(0.0280811346 0.0007619060536 2.187131996e-11)
(0.03362363855 0.0007758733917 2.245400915e-11)
(0.03989407892 0.0007835883248 2.345927946e-11)
(0.04693998076 0.0007842613279 1.534144521e-11)
(0.05480876027 0.0007772852659 1.763657097e-11)
(0.06354778804 0.0007622618906 2.487816051e-11)
(0.07320443196 0.0007390170697 2.393381148e-11)
(0.08382611458 0.0007076095654 2.390631384e-11)
(0.095460392 0.0006683334753 2.614450726e-11)
(0.1081550574 0.0006217136854 1.558504556e-11)
(0.1219582717 0.0005684939502 6.081745786e-12)
(0.1369187331 0.0005096188223 5.822392684e-12)
(0.1530859551 0.0004462056583 7.348858682e-12)
(0.1705110031 0.0003794872229 4.567021887e-12)
(0.189249525 0.0003107797936 4.605055803e-12)
(0.2093765237 0.0002419913678 1.451218211e-12)
(0.2310606669 0.0001768559623 -1.276150295e-13)
(0.2549344325 0.0001164504171 -2.507058002e-12)
(0.2839527287 3.779178686e-05 -2.904815281e-12)
(0.0003969191322 8.496856392e-05 1.672137315e-11)
(0.001405297505 0.0002391242262 2.666087382e-11)
(0.002630096296 0.0003723447001 2.148796131e-11)
(0.00408114206 0.0004809564565 1.860383375e-11)
(0.005782021055 0.0005671679893 1.839730925e-11)
(0.007773256466 0.0006344099026 1.857245481e-11)
(0.01010938862 0.0006870669428 1.893792672e-11)
(0.01285236455 0.0007294882599 1.957651525e-11)
(0.01606446342 0.000764963507 1.489949187e-11)
(0.01980378405 0.0007952423998 1.556407466e-11)
(0.02412328669 0.0008206868165 2.261493569e-11)
(0.0290721126 0.0008407818631 2.317596324e-11)
(0.0346973221 0.0008546499326 2.345445011e-11)
(0.04104506725 0.0008613828693 2.554767894e-11)
(0.04816114518 0.000860201066 2.408418629e-11)
(0.05609120495 0.0008505184486 2.369889218e-11)
(0.06488082702 0.0008319716583 2.664680515e-11)
(0.07457557826 0.000804436897 2.56888046e-11)
(0.08522107822 0.0007680402439 2.572553871e-11)
(0.09686308666 0.0007231616129 2.819886225e-11)
(0.1095476149 0.0006704318602 2.547667209e-11)
(0.1233210637 0.0006107227505 2.548438878e-11)
(0.1382304012 0.0005451309227 2.752189517e-11)
(0.1543234519 0.0004749520722 2.712675845e-11)
(0.1716496689 0.0004016267035 1.611838797e-11)
(0.1902633043 0.0003267110261 2.86662565e-12)
(0.2102387094 0.0002523634726 2.944265723e-12)
(0.23174629 0.0001824984628 -1.458886009e-11)
(0.2554252702 0.0001184102169 -1.724885098e-11)
(0.2842257522 3.83365536e-05 -3.176719179e-12)
(0.0004396845303 9.382001436e-05 2.20410868e-11)
(0.001534928445 0.0002637029067 2.11022438e-11)
(0.002847111289 0.0004097681819 2.028092359e-11)
(0.004385541352 0.0005288072568 2.26957347e-11)
(0.006173925657 0.0006235360542 2.754351434e-11)
(0.008253258844 0.0006977578913 2.793645836e-11)
(0.01067848288 0.0007561246087 2.887412989e-11)
(0.0135116053 0.0008031512147 3.005607088e-11)
(0.01681454596 0.0008422141913 2.769496557e-11)
(0.02064465362 0.0008751055817 2.034541295e-11)
(0.02505380535 0.000902209076 2.377360192e-11)
(0.03008979556 0.0009230209234 2.453188077e-11)
(0.03579815156 0.0009366695869 2.482986648e-11)
(0.04222337678 0.0009422545568 2.618594447e-11)
(0.04940955275 0.0009390118085 2.669370908e-11)
(0.05740057422 0.0009263830027 2.410741974e-11)
(0.06624024483 0.000904047065 2.837861374e-11)
(0.07597234298 0.0008719385236 2.863574463e-11)
(0.08664069698 0.0008302592463 1.822131435e-11)
(0.09828928093 0.0007794837696 1.258932649e-11)
(0.1109623327 0.0007203578432 6.130506241e-12)
(0.1247044996 0.0006538900875 -2.709696968e-12)
(0.139561022 0.00058133759 -3.558127756e-12)
(0.1555780371 0.0005041818118 5.252517791e-12)
(0.1728033896 0.0004240765258 1.719153305e-11)
(0.191289957 0.0003428199262 2.521060556e-11)
(0.2111115173 0.0002628173963 2.814338545e-11)
(0.2324403842 0.0001881591384 1.102459974e-11)
(0.2559225473 0.0001203638955 -4.61580971e-12)
(0.2845017074 3.886348778e-05 -3.446213408e-12)
(0.0004850861553 0.0001032211166 2.180007524e-11)
(0.001671728494 0.0002897196101 3.102057894e-11)
(0.003075106522 0.0004492897896 3.00965755e-11)
(0.004704093148 0.0005792365444 2.426009291e-11)
(0.006582649459 0.0006828281087 2.121313549e-11)
(0.008752375526 0.0007642769708 2.124572225e-11)
(0.01126871099 0.0008285292318 2.175809868e-11)
(0.01419376712 0.0008802824175 2.246346652e-11)
(0.0175891034 0.0009230064431 2.954307853e-11)
(0.02151129668 0.0009585354797 2.828798593e-11)
(0.02601112169 0.0009872728432 2.497516537e-11)
(0.03113501817 0.001008725358 2.586069593e-11)
(0.03692698334 0.001022029692 2.617255139e-11)
(0.04342988031 0.001026297267 2.666493987e-11)
(0.0506860858 0.001020785301 2.941548373e-11)
(0.05873775198 0.001004969757 1.855721916e-11)
(0.06762691734 0.0009785790333 1.153869528e-11)
(0.07739558405 0.0009416138052 1.2237748e-11)
(0.08808580025 0.0008943598884 1.895490434e-11)
(0.09973976381 0.0008373948444 3.105064024e-11)
(0.112399948 0.0007715877699 2.806810999e-11)
(0.1261092523 0.0006980922996 2.943195235e-11)
(0.1409111946 0.00061833346 1.763421834e-11)
(0.1568502271 0.0005339850182 1.538033041e-12)
(0.1739725943 0.000446918738 5.307818087e-12)
(0.1923298288 0.0003591761898 3.856942007e-12)
(0.2119952208 0.0002734063796 2.286120583e-12)
(0.2331431638 0.0001938724004 1.411348188e-11)
(0.2564263983 0.0001223277194 1.075674263e-11)
(0.2847806231 3.937714501e-05 -6.122364166e-12)
(0.0005332458811 0.0001131979255 2.123875456e-11)
(0.001815995433 0.0003172371423 3.038097944e-11)
(0.003314509633 0.0004909980684 2.34170465e-11)
(0.005037325683 0.0006323515057 2.262283135e-11)
(0.007008801593 0.0007451648918 2.56965122e-11)
(0.009271280529 0.0008340967795 3.181980761e-11)
(0.01188079748 0.0009044144904 2.913990203e-11)
(0.0148996136 0.0009610149744 2.349099274e-11)
(0.01838893116 0.001007469279 2.451683482e-11)
(0.02240453742 0.001045655111 2.525796482e-11)
(0.02699608626 0.001075994618 2.623471366e-11)
(0.03220865501 0.001098005557 2.70589901e-11)
(0.03808471167 0.001110835344 2.748004946e-11)
(0.04466548606 0.001113611755 2.811397464e-11)
(0.05199165946 0.001105618919 3.104951151e-11)
(0.06010365183 0.001086373616 2.180573981e-11)
(0.06904174813 0.001055660887 1.776764787e-11)
(0.0788461841 0.001013555186 3.109072636e-11)
(0.08955723885 0.0009604341799 2.839408649e-11)
(0.101215344 0.0008969864477 3.143115587e-11)
(0.113861216 0.0008242123726 2.010214781e-11)
(0.1275360137 0.0007434182455 1.0408115e-11)
(0.1422815372 0.0006562040291 1.675548919e-11)
(0.1581405597 0.0005644415211 2.732279549e-11)
(0.1751577377 0.000470224422 1.668347323e-11)
(0.193383294 0.0003758387691 3.627823764e-12)
(0.212890125 0.0002841742584 3.652199421e-14)
(0.2338548723 0.0001996657786 -1.791228222e-12)
(0.2569369831 0.0001243142113 6.954397757e-13)
(0.2850625399 3.988071365e-05 -9.053987953e-12)
(0.0005842898331 0.0001237774129 2.762441378e-11)
(0.001968037771 0.0003463207063 3.257366849e-11)
(0.00356576385 0.0005349847678 3.454440472e-11)
(0.005385786863 0.0006882628241 3.009593704e-11)
(0.007453014932 0.0008106707553 2.097529555e-11)
(0.009810675854 0.0009073507932 2.395198566e-11)
(0.01251549957 0.0009839184798 3.088662301e-11)
(0.0156299454 0.001045487286 3.159317347e-11)
(0.01921486536 0.001095737941 2.561682815e-11)
(0.02332524211 0.001136594415 2.645813861e-11)
(0.02800959256 0.001168498165 3.274270211e-11)
(0.03331162244 0.001190979044 3.709565695e-11)
(0.03927227119 0.001203198214 2.965924813e-11)
(0.04593114052 0.001204304469 2.83286147e-11)
(0.05332722449 0.001193614606 2.424436838e-11)
(0.06149922075 0.001170692754 2.253996502e-11)
(0.07048567007 0.001135387708 2.637144363e-11)
(0.08032505322 0.001087855147 3.275298914e-11)
(0.09105588945 0.001028572307 2.084928217e-11)
(0.1027168538 0.0009583465878 9.91670798e-12)
(0.1153469144 0.0008783172138 2.256189235e-11)
(0.1289854965 0.0007899501875 3.208225736e-11)
(0.1436726897 0.0006950267723 6.214673065e-12)
(0.1594495962 0.0005956220346 -8.044426146e-12)
(0.1763593001 0.0004940552673 1.754578057e-11)
(0.1944507551 0.0003928578414 1.574780629e-11)
(0.2137965645 0.0002951577306 -2.417962582e-12)
(0.2345757827 0.0002055619912 -2.136824273e-12)
(0.2574544821 0.000126333471 -1.931567035e-12)
(0.2853475081 4.037667267e-05 -6.903578105e-12)
(0.000638348421 0.0001349874744 2.699849454e-11)
(0.002128175116 0.0003770379332 3.842711235e-11)
(0.003829329228 0.0005813450534 3.335226008e-11)
(0.005750046257 0.0007470851043 3.202906524e-11)
(0.007915948009 0.0008794741247 3.226981073e-11)
(0.01037129352 0.0009841766813 3.185709728e-11)
(0.01317360887 0.001067183819 2.562021377e-11)
(0.01638560193 0.001133842877 3.342399834e-11)
(0.02006778389 0.001187953461 3.43421989e-11)
(0.02427432119 0.001231489589 2.753325889e-11)
(0.02905257825 0.001264913643 2.025597421e-11)
(0.03444488099 0.001287769516 2.339376441e-11)
(0.04049063923 0.001299235599 3.14257848e-11)
(0.04722783106 0.001298486591 3.091974559e-11)