# Region type : patch OUTLET
# Faces  :    30
# Area   :    9.000001e-07
# Time        	areaAverage(N1rel)
1.2           	5.040900e+01
