4.545454545e-05 	0.0005400130555 	0.0001033371058 	1.115498484e-11
6.060606061e-05 	0.001396193263 	0.0002671756486 	2.884050198e-11
7.575757576e-05 	0.002252373492 	0.000431014199 	4.652602325e-11
9.090909091e-05 	0.003128536711 	0.000582871166 	5.535586601e-11
0.0001060606061 	0.004027083189 	0.0007213133426 	5.427268912e-11
0.0001212121212 	0.004925629667 	0.0008597555224 	5.318951067e-11
0.0001363636364 	0.005838340006 	0.0009898058736 	5.219770508e-11
0.0001515151515 	0.006782181485 	0.001101420633 	5.140732292e-11
0.0001666666667 	0.007726022939 	0.00121303539 	5.061693993e-11
0.0001818181818 	0.008678283318 	0.001321112751 	4.99509804e-11
0.000196969697 	0.009676886185 	0.001409732083 	4.996743721e-11
0.0002121212121 	0.01067548904 	0.001498351413 	4.998389354e-11
0.0002272727273 	0.01167409189 	0.001586970743 	5.000034952e-11
0.0002424242424 	0.01274360289 	0.001657051593 	4.944591149e-11
0.0002575757576 	0.01381348626 	0.001727036509 	4.888833828e-11
0.0002727272727 	0.0148833696 	0.001797021422 	4.833076509e-11
0.0002878787879 	0.01603033258 	0.001854562555 	4.764582513e-11
0.000303030303 	0.01719243743 	0.001909660314 	4.693539058e-11
0.0003181818182 	0.01835454226 	0.001964758069 	4.622495705e-11
0.0003333333333 	0.01959385822 	0.002011860633 	4.452011871e-11
0.0003484848485 	0.02087003897 	0.002055146819 	4.23408813e-11
0.0003636363636 	0.02214621967 	0.002098432998 	4.016164414e-11
0.0003787878788 	0.02349180605 	0.002136745926 	3.854285098e-11
0.0003939393939 	0.02490200886 	0.002170429643 	3.744653556e-11
0.0004090909091 	0.02631221159 	0.002204113351 	3.635021888e-11
0.0004242424242 	0.02777646162 	0.002234820934 	3.666178537e-11
0.0004393939394 	0.02933725879 	0.002260213014 	3.948832368e-11
0.0004545454545 	0.03089805589 	0.00228560509 	4.231486124e-11
0.0004696969697 	0.03249157664 	0.002309456731 	4.473695133e-11
0.0004848484848 	0.03421605951 	0.002327144601 	4.553922279e-11
0.0005 	0.03594054235 	0.002344832467 	4.634149403e-11
0.0005151515152 	0.03767215078 	0.002362210173 	4.704546282e-11
0.0005303030303 	0.03957067789 	0.002372326531 	4.545410104e-11
0.0005454545455 	0.04146920494 	0.002382442887 	4.386273898e-11
0.0005606060606 	0.04336773192 	0.002392559239 	4.22713766e-11
0.0005757575758 	0.04542734083 	0.002395933969 	4.202480631e-11
0.0005909090909 	0.04750850768 	0.002398406587 	4.195780635e-11
0.0006060606061 	0.04958967446 	0.002400879198 	4.189080638e-11
0.0006212121212 	0.05180839056 	0.002397751823 	4.108199447e-11
0.0006363636364 	0.05407980853 	0.002392478932 	3.998889631e-11
0.0006515151515 	0.05635122635 	0.002387206033 	3.889579827e-11
0.0006666666667 	0.05873395508 	0.002377546764 	3.775595795e-11
0.0006818181818 	0.0612027288 	0.00236449685 	3.658047783e-11
0.000696969697 	0.06367150239 	0.002351446926 	3.540499662e-11
0.0007121212121 	0.06622298371 	0.002335282388 	3.467678503e-11
0.0007272727273 	0.06889595669 	0.002314542738 	3.460556838e-11
0.0007424242424 	0.07156892951 	0.002293803086 	3.453435128e-11
0.0007575757576 	0.0742937961 	0.002271227458 	3.428792489e-11
0.0007727272727 	0.07717767011 	0.002243026146 	3.350428095e-11
0.0007878787879 	0.08006154401 	0.002214824828 	3.272063659e-11
0.000803030303 	0.08296436037 	0.002186006832 	3.197170366e-11
0.0008181818182 	0.0860657625 	0.002150723253 	3.158611478e-11
0.0008333333333 	0.08916716455 	0.002115439672 	3.120052582e-11
0.0008484848485 	0.09226856652 	0.00208015609 	3.081493679e-11
0.0008636363636 	0.09557798712 	0.002038797469 	3.229575818e-11
0.0008787878788 	0.09890352195 	0.00199696815 	3.392077277e-11
0.0008939393939 	0.1022290567 	0.001955138826 	3.554578807e-11
0.0009090909091 	0.1057320798 	0.001908811066 	3.501696651e-11
0.0009242424242 	0.1092883805 	0.001861132845 	3.384172741e-11
0.0009393939394 	0.1128446811 	0.001813454619 	3.266648889e-11
0.0009545454545 	0.116545883 	0.001762731428 	2.968170154e-11
0.0009696969697 	0.1203396681 	0.00171006247 	2.554194213e-11
0.0009848484848 	0.1241334531 	0.001657393507 	2.140218018e-11
0.001 	0.1280374846 	0.001602932432 	1.899284468e-11
0.001015151515 	0.1320756247 	0.001546291028 	1.868908887e-11
0.00103030303 	0.1361137645 	0.001489649625 	1.838533135e-11
0.001045454545 	0.1402253828 	0.001432190933 	1.852778624e-11
0.001060606061 	0.1445149916 	0.001372751933 	1.97496682e-11
0.001075757576 	0.1488046003 	0.001313312929 	2.097154886e-11
0.001090909091 	0.1531287121 	0.001253677865 	2.189121656e-11
0.001106060606 	0.1576773143 	0.001192765896 	2.084124169e-11
0.001121212121 	0.1622259163 	0.001131853928 	1.979126695e-11
0.001136363636 	0.1667745182 	0.001070941959 	1.874129232e-11
0.001151515152 	0.1715836019 	0.001010017931 	1.715701707e-11
0.001166666667 	0.1763995719 	0.0009490934097 	1.555814586e-11
0.001181818182 	0.1812155416 	0.0008881688883 	1.395927614e-11
0.001196969697 	0.1862581876 	0.00082851619 	9.578615814e-12
0.001212121212 	0.1913521967 	0.0007691514771 	4.567768308e-12
0.001227272727 	0.1964462055 	0.000709786763 	-4.430776854e-13
0.001242424242 	0.2017346561 	0.0006525556556 	-3.557408328e-12
0.001257575758 	0.2071249392 	0.0005964417281 	-5.67798104e-12
0.001272727273 	0.2125152219 	0.000540327803 	-7.798553539e-12
0.001287878788 	0.2180755145 	0.000486792147 	-7.02975387e-12
0.001303030303 	0.2238076564 	0.000435862376 	-3.340379267e-12
0.001318181818 	0.229539798 	0.0003849326048 	3.489952888e-13
0.001333333333 	0.2354376422 	0.0003364349182 	2.994438127e-12
0.001348484848 	0.2416595554 	0.0002926932139 	3.599583282e-12
0.001363636364 	0.2478814683 	0.0002489515101 	4.204726937e-12
0.001378787879 	0.2542883673 	0.0002065143982 	3.963115165e-12
0.001393939394 	0.2615417643 	0.0001700454706 	-1.534238983e-13
0.001409090909 	0.2687951611 	0.0001335765431 	-4.269963275e-12
0.001424242424 	0.2761141952 	9.72196832e-05 	-8.249158928e-12
0.001439393939 	0.2865920648 	6.624413413e-05 	-5.620879032e-12
0.001454545455 	0.2970699339 	3.526858569e-05 	-2.99260006e-12
0.00146969697 	0.3075478023 	4.293038033e-06 	-3.643222589e-13
