/*--------------------------------*- C++ -*----------------------------------*\
  =========                 |
  \\      /  F ield         | OpenFOAM: The Open Source CFD Toolbox
   \\    /   O peration     | Website:  https://openfoam.org
    \\  /    A nd           | Version:  8
     \\/     M anipulation  |
\*---------------------------------------------------------------------------*/
FoamFile
{
    version     2.0;
    format      ascii;
    class       volScalarField;
    location    "901";
    object      nu;
}
// * * * * * * * * * * * * * * * * * * * * * * * * * * * * * * * * * * * * * //

dimensions      [0 2 -1 0 0 0 0];

internalField   nonuniform List<scalar> 
6300
(
1.680438518
1.696532506
1.564408991
1.407410626
1.253780699
1.113147466
0.9888647573
0.881330166
0.7893162049
0.7108947843
0.6440126958
0.5867745341
0.5375449116
0.4949598791
0.4579005935
0.4254557069
0.3968840417
0.3715818677
0.3490557399
0.328900624
0.3107825192
0.2944247606
0.2795971167
0.266106444
0.2537851854
0.2424597199
0.2318078265
0.220691912
0.2041688727
0.1619642045
1.405497333
1.420028222
1.373334009
1.284121214
1.172505726
1.055887114
0.9459253663
0.8479668268
0.7630163212
0.6900580648
0.6274713646
0.5736316334
0.52710314
0.4866756022
0.4513488088
0.4203027581
0.3928665325
0.3684905232
0.346723059
0.3271914254
0.309586623
0.2936512227
0.2791694991
0.2659586191
0.2538568059
0.2426894731
0.232124542
0.221013026
0.2043705004
0.1615274935
1.3104723
1.31789583
1.288024598
1.222090978
1.130039272
1.026273669
0.9239435298
0.8307308288
0.7491200131
0.6787356834
0.6182026335
0.5660149946
0.5208190747
0.4814699891
0.4470201007
0.4166910198
0.3898444147
0.365956081
0.344594169
0.3254014667
0.3080811529
0.2923854068
0.2781061327
0.2650665666
0.2531095917
0.2420640853
0.231602256
0.2205753728
0.2039191085
0.1607436139
1.246382003
1.244996738
1.220029621
1.166709769
1.088392927
0.995501339
0.9005158192
0.812177905
0.7340680767
0.6664074842
0.6080727346
0.5576753094
0.5139390406
0.4757817103
0.4423077271
0.4127811316
0.3865976068
0.3632599645
0.3423577566
0.323550714
0.3065554775
0.2911349384
0.2770895186
0.2642491443
0.2524617143
0.2415595628
0.2312157417
0.2202647883
0.2035455541
0.1600529722
1.194138433
1.186918413
1.163858448
1.118392152
1.050144087
0.9662936568
0.877989245
0.7942791531
0.7195100765
0.6544380121
0.5981952859
0.5495116605
0.5071828874
0.4701828062
0.4376624857
0.4089244936
0.3833958022
0.3606043655
0.3401598184
0.3217379151
0.3050680611
0.2899232959
0.276112064
0.2634705128
0.25185115
0.2410891753
0.2308561236
0.2199649451
0.2031646765
0.1593806933
1.147547286
1.136910929
1.115106347
1.075165663
1.014691163
0.9384858788
0.8562719124
0.7769704075
0.7054180925
0.6428273373
0.5885838109
0.5415404334
0.5005642384
0.4646816906
0.4330868516
0.4051177323
0.3802302188
0.3579756201
0.33798233
0.3199411384
0.3035934675
0.2887219528
0.2751426518
0.2626976786
0.2512440587
0.240619686
0.2304935707
0.2196555027
0.2027686125
0.1587219561
1.104040381
1.091784576
1.071305019
1.035719735
0.9815468371
0.9119154347
0.8352596491
0.7601546152
0.6917149148
0.6315237166
0.5792069395
0.5337435884
0.4940729343
0.4592724967
0.4285770171
0.4013577579
0.3770977128
0.3553701213
0.3358210506
0.3181555027
0.3021263119
0.2875252696
0.2741757558
0.2619256998
0.2506365731
0.240148785
0.2301281719
0.2193402356
0.2023631815
0.1580763396
1.062589203
1.050031437
1.03113759
0.9992792424
0.9504128819
0.8865108124
0.8149254196
0.743796271
0.678363039
0.6204974756
0.5700444951
0.5261083115
0.4877009994
0.4539501808
0.424129566
0.3976419626
0.3739959928
0.3527856313
0.3336736987
0.3163786931
0.3006643383
0.2863311964
0.2732097184
0.2611534889
0.2500283186
0.239676914
0.2297613649
0.2190215761
0.2019507748
0.1574427665
1.022762078
1.010837467
0.9938001665
0.9653096753
0.9210525758
0.8622092182
0.7952553016
0.7278783127
0.6653396008
0.6097273056
0.5610800084
0.5186227885
0.481440124
0.4487088328
0.4197401677
0.3939670272
0.3709223814
0.3502199059
0.3315383417
0.3146090567
0.2992061809
0.2851387026
0.2722438948
0.2603808401
0.2494195514
0.2392048154
0.2293943708
0.2187009476
0.2015324214
0.1568202118
0.9843635017
0.9737199038
0.9587608387
0.9334149589
0.8932610029
0.8389400772
0.7762296364
0.7123862521
0.6526265979
0.5991954558
0.5522988371
0.5112759164
0.4752821671
0.4435425187
0.415404487
0.3903297586
0.367874514
0.3476711951
0.3294137157
0.3128457329
0.2977513486
0.2839476474
0.2712784961
0.259608308
0.2488111557
0.2387336633
0.2290285215
0.2183794911
0.2011088197
0.1562080428
0.9473007779
0.9383764346
0.9256543721
0.9032964503
0.8668633065
0.8166306551
0.757823862
0.6973061682
0.640209475
0.5888875697
0.5436888154
0.504058271
0.4692201263
0.4384461464
0.4111188656
0.3867275647
0.364850592
0.3451382977
0.3272990922
0.3110883857
0.2962998386
0.2827583347
0.2703141059
0.2588367331
0.2482041932
0.2382646596
0.2286649772
0.2180580091
0.200680439
0.1556058787
0.9115262362
0.9046070949
0.8942209451
0.8747252732
0.8417117267
0.7952103366
0.7400102161
0.6826237892
0.6280757149
0.5787917368
0.5352397744
0.496961886
0.4632480544
0.4334154094
0.4068802504
0.383158342
0.3618492282
0.3426203784
0.3251940629
0.309336956
0.2948518884
0.2815712552
0.2693514414
0.2580670267
0.2475997162
0.2377989028
0.2283046836
0.2177370539
0.200247639
0.1550135305
0.8770106976
0.8722717221
0.8642691978
0.8475229951
0.8176819742
0.7746130969
0.722759557
0.6683244256
0.6162140365
0.5688978005
0.5269430779
0.4899799634
0.457360862
0.4284466255
0.4026860637
0.3796203493
0.358869325
0.3401168323
0.3230984127
0.307591535
0.2934078493
0.2803869813
0.2683912596
0.25730009
0.2469987152
0.237337365
0.2279484099
0.21741702
0.1998107514
0.1544309503
0.8437313611
0.8412660714
0.8356533449
0.8215480379
0.7946694224
0.7547786292
0.706042764
0.6543931755
0.6046139864
0.5591968847
0.5187912859
0.4831066319
0.4515541444
0.4235366087
0.3985340888
0.3761121188
0.3559099872
0.3376272078
0.3210120373
0.305852301
0.2919681267
0.2792061061
0.267434309
0.2565367857
0.2464021027
0.2368809033
0.2275967888
0.2170982117
0.1993701151
0.1538582002
0.811666371
0.8115080662
0.8082585658
0.7966859298
0.7725855823
0.7356525333
0.6898315726
0.6408151971
0.5932657171
0.5496810666
0.5107778867
0.4763367686
0.4458240536
0.4186825809
0.394422397
0.3726323877
0.3529704641
0.3351511552
0.3189349023
0.3041194731
0.2905331469
0.2780292239
0.2664813117
0.2557779231
0.2458107142
0.2364302755
0.2272503572
0.2167808831
0.1989260977
0.1532954468
0.7807924888
0.7829296717
0.7819915708
0.7728423541
0.7513550252
0.7171860051
0.6740990682
0.6275759051
0.5821598759
0.5403431517
0.50289709
0.4696658459
0.4401671897
0.4138820874
0.390349292
0.3691800535
0.350050121
0.3326884018
0.3168670224
0.302393295
0.289103336
0.2768569117
0.2655329581
0.2550242628
0.245225319
0.235986166
0.2269095875
0.2164652739
0.1984791108
0.152742923
0.7510842367
0.7554720303
0.7567743937
0.749938173
0.7309129012
0.6993353214
0.6588199088
0.6146611302
0.5712875001
0.5311765083
0.4951436789
0.4630898185
0.4345805236
0.4091329442
0.3863132665
0.3657541478
0.3471484076
0.33023873
0.3148084431
0.3006740229
0.2876791203
0.2756897264
0.2645899048
0.2542765204
0.2446466333
0.2355492036
0.2265749127
0.2161516253
0.1980296086
0.1522009411
0.7225137871
0.7290825078
0.7325402264
0.7279058395
0.7112028923
0.682061251
0.6439703938
0.6020572132
0.5606400013
0.522174955
0.4875128968
0.4566050359
0.4290613325
0.4044331934
0.3823129784
0.3623538137
0.3442648494
0.3278019675
0.3127592316
0.2989619174
0.2862609172
0.2745282092
0.2636527809
0.2535353753
0.2440753345
0.2351199803
0.2262467448
0.2158401964
0.1975780989
0.1516698704
0.6950511544
0.7037128718
0.7092306112
0.7066868224
0.6921756436
0.6653284963
0.6295284356
0.5897510602
0.5502091447
0.5133326816
0.4800003553
0.4502081698
0.4236071484
0.3997810661
0.3783472184
0.3589782851
0.3413990331
0.3253779796
0.3107194786
0.2972572463
0.2848491364
0.2733728824
0.2627221939
0.2528014815
0.2435120713
0.2346990659
0.2259254904
0.215531277
0.1971251412
0.1511501347
0.6686645291
0.679318166
0.6867935271
0.6862296986
0.6737875163
0.6491051858
0.6154734939
0.5777301692
0.5399870129
0.5046441907
0.472601977
0.4438961557
0.4182157156
0.3951749561
0.3744148964
0.3556268788
0.3385506007
0.3229666641
0.3086892868
0.2955602823
0.2834441853
0.2722242583
0.2617987343
0.2520754751
0.2429574783
0.2342870208
0.225611562
0.2152251899
0.1966713522
0.1506422182
0.6433206644
0.6558559984
0.6651820231
0.6664887529
0.6559995954
0.6333624179
0.6017864754
0.5659826495
0.529966017
0.4961042452
0.4653139435
0.4376661559
0.4128849586
0.3906133922
0.3705150207
0.3522989858
0.3357192411
0.3205679495
0.3066687771
0.2938713002
0.2820464678
0.271082844
0.2608829854
0.2513579851
0.2424121855
0.2338844075
0.2253053897
0.2149223042
0.1962174015
0.1501466544
0.6189852567
0.6332860855
0.6443532626
0.6474229593
0.6387769284
0.618073887
0.5884496072
0.5544972023
0.5201388804
0.4877078607
0.4581326442
0.4315155242
0.407612956
0.3860950228
0.3666466893
0.3489940539
0.3329046845
0.3181817918
0.3046580888
0.2921905867
0.2806563904
0.2699491452
0.2599755289
0.2506496412
0.2418768249
0.2334917997
0.2250074269
0.2146230341
0.1957640181
0.149664036
0.5956232923
0.6115699812
0.6242678233
0.628995163
0.6220879011
0.6032155518
0.5754463578
0.5432630968
0.5104986259
0.4794502684
0.4510546615
0.4254417734
0.4023979178
0.381618599
0.3628090766
0.3457115922
0.3301067007
0.3158081759
0.3026573753
0.2905184405
0.2792743701
0.2688236754
0.2590769537
0.249951082
0.2413520427
0.2331097874
0.2247181593
0.2143278483
0.1953119932
0.1491950068
0.5731993842
0.590670875
0.6048891754
0.6111714898
0.6059037539
0.5887653494
0.5627613112
0.5322701672
0.5010385614
0.4713269018
0.4440767489
0.4194425597
0.3972381683
0.3771829641
0.3590014267
0.342451161
0.3273251041
0.3134471135
0.3006668136
0.2888551751
0.2779008336
0.2677069588
0.2581878629
0.2492629617
0.2408385061
0.2327389892
0.2244381087
0.2140372745
0.1948621823
0.1487402625
0.5516780385
0.570553471
0.5861833023
0.5939208571
0.5901981853
0.5747029703
0.5503800683
0.521508774
0.4917522814
0.4633333779
0.4371958057
0.4135156636
0.3921321373
0.3727870401
0.3552230498
0.3392123704
0.3245597446
0.3110986475
0.2986866082
0.2872011234
0.2765362309
0.2665995399
0.2573088796
0.2485859601
0.240336907
0.232380056
0.2241678425
0.2137519008
0.1944155038
0.1483005654
0.5310239037
0.5511839102
0.5681183873
0.5772146148
0.5749470335
0.5610096362
0.5382891744
0.5109697667
0.4826336506
0.4554654909
0.4304088714
0.4076589737
0.3870783503
0.3684298281
0.3514733153
0.3359948814
0.3218105134
0.3087628547
0.2967169902
0.2855566494
0.2751810358
0.2655019919
0.2564406585
0.247920786
0.2398479754
0.2320336762
0.2239079769
0.2134723818
0.193972949
0.1478767347
0.5112019925
0.5325296882
0.5506645798
0.5610262221
0.5601280039
0.5476679514
0.5264760188
0.5006444642
0.4736767946
0.4477191974
0.423713113
0.4018704913
0.3820754149
0.364110404
0.3477516565
0.3327984103
0.3190773462
0.3064398569
0.2947582268
0.2839221488
0.2738357555
0.2644149201
0.2555838874
0.2472681883
0.2393724797
0.2317005855
0.2236591847
0.2131994474
0.1935355833
0.1474696494
0.4921778322
0.5145596165
0.5337937995
0.5453310163
0.5457204476
0.534661743
0.514928761
0.4905246344
0.4648760805
0.4400906199
0.4171058131
0.396148314
0.3771220248
0.3598279126
0.3440575696
0.329622726
0.3163602316
0.304129816
0.292810633
0.2822980596
0.2725009412
0.2633389722
0.2547392996
0.2466289623
0.2389112369
0.2313815723
0.2234222
0.2129339018
0.1931045464
0.1470802659
0.4739176262
0.497243785
0.5174795753
0.530105998
0.5317051834
0.5219759286
0.5036362746
0.4806024493
0.4562261158
0.4325760351
0.4105843755
0.3904906355
0.3722169564
0.355581576
0.3403906155
0.3264676586
0.313659215
0.3018329502
0.2908745706
0.2806848757
0.2711771938
0.2622748518
0.2539076819
0.2460039559
0.2384651196
0.2310774821
0.2231978232
0.2126766322
0.1926810626
0.1467096026
0.4563883709
0.4805534994
0.5016969093
0.515329662
0.5180643296
0.5095964154
0.4925880753
0.4708704631
0.4477217353
0.4251718628
0.4041463152
0.3848957477
0.3673590742
0.351370694
0.3367504319
0.3233331099
0.3109744102
0.2995495471
0.288950468
0.2790831473
0.2698651766
0.261223319
0.2530898801
0.2453940797
0.2380350633
0.230789226
0.2229869313
0.2124286149
0.1922664438
0.146358762
0.4395579281
0.4644612584
0.486422154
0.500981843
0.5047811764
0.4975099922
0.4817742689
0.4613215978
0.4393579959
0.4178746739
0.3977892574
0.3793620409
0.3625473329
0.3471946517
0.3331367412
0.3202190615
0.3083060074
0.2972799683
0.2870388316
0.2774935009
0.2685656255
0.2601852081
0.2522868147
0.2448003152
0.2376220723
0.2305177883
0.2227904801
0.2121909192
0.1918620915
0.1460289276
0.4233951093
0.4489407132
0.4716329184
0.4870435943
0.4918400598
0.4857042492
0.471185508
0.4519491026
0.4311301614
0.4106811859
0.3915109529
0.3738880081
0.3577807864
0.3430529303
0.3295493594
0.3171255937
0.305654292
0.2950246672
0.2851402562
0.2759166537
0.2672793649
0.2591614389
0.2514994855
0.2442237219
0.23722723
0.230264232
0.2226095144
0.2119647159
0.1914695062
0.1457213638
0.4078697239
0.433966616
0.4573079572
0.4734970694
0.4792262656
0.4741674955
0.4608129352
0.4427465507
0.4230336967
0.4035882568
0.3853092721
0.3684722598
0.3530586026
0.3389451268
0.3259882155
0.3140528961
0.3030196659
0.2927842101
0.2832554457
0.2743534266
0.2660073183
0.2581530263
0.2507289869
0.2436654498
0.2368517076
0.2300297083
0.2224451721
0.2117512795
0.1910902911
0.1454374383
0.392952595
0.4195147848
0.4434270924
0.4603254209
0.466925928
0.462888695
0.4506481461
0.4337078099
0.415064275
0.3965929034
0.3791822149
0.3631135309
0.3483800757
0.3348709687
0.3224533734
0.3110012964
0.3004026621
0.2905592979
0.2813852332
0.2728047652
0.2647505286
0.2571610992
0.2499765204
0.2431267494
0.2364967702
0.2298154617
0.2222986924
0.211551998
0.1907261587
0.1451786085
0.3786155787
0.4055620566
0.4299711434
0.4475127124
0.4549259526
0.4518574092
0.4406831548
0.4248270264
0.4072177558
0.3896922987
0.3731279293
0.3578107042
0.3437446515
0.3308303391
0.3189450555
0.3079712853
0.2978039758
0.2883507882
0.2795306063
0.2712717626
0.2635101786
0.2561869165
0.2492434066
0.2426089835
0.2361637884
0.2296228409
0.222171424
0.2113683793
0.1903789362
0.1449464459
0.3648315698
0.3920862337
0.4169218345
0.4350438282
0.4432139391
0.4410637283
0.4309103589
0.4160986191
0.3994902053
0.3828837831
0.3671447266
0.3525628337
0.3391519568
0.3268233099
0.3154636818
0.3049635482
0.2952245011
0.2861597302
0.2776927354
0.2697556842
0.2622876103
0.2552318847
0.248531102
0.2421136384
0.2358542489
0.2294533052
0.2220648288
0.2112020524
0.1900505689
0.1447426314
0.3515744754
0.3790660377
0.4042617302
0.4229044016
0.431778112
0.4304982271
0.4213225092
0.4075172651
0.3918778963
0.3761648891
0.3612311102
0.3473691761
0.3346018352
0.3228501836
0.3120099074
0.3019790129
0.2926653663
0.2839874026
0.2758730076
0.268257997
0.2610843518
0.2542975798
0.2478412159
0.2416423362
0.2355697602
0.2293084314
0.2219804897
0.2110547779
0.1897431297
0.1445689617
0.3388191983
0.3664810539
0.3919741669
0.4110807414
0.4206072571
0.4201519206
0.4119126831
0.3990778883
0.3843773169
0.3695333602
0.355385815
0.3422292367
0.3300943986
0.3189115432
0.3085846782
0.2990188968
0.2901279842
0.2818353564
0.2740730683
0.2667804077
0.2599021477
0.2533857708
0.2471755273
0.2411968508
0.2353120661
0.2291899194
0.2219201148
0.210928449
0.1894588199
0.1444273672
0.3265415915
0.3543116699
0.380043178
0.3995597558
0.4096906554
0.4100162233
0.4026742764
0.3907756786
0.3769852005
0.3629871926
0.3496078521
0.3371428259
0.3256300889
0.3150083188
0.3051892988
0.296084768
0.2876141148
0.2797054718
0.2722948653
0.2653248985
0.2587429911
0.2524984439
0.2465360047
0.2407791184
0.2350830517
0.2290995991
0.2218855402
0.2108250927
0.1891999748
0.1443199083
0.3147184105
0.3425390174
0.3684534288
0.3883288939
0.3990180369
0.400082901
0.3936009787
0.3826060973
0.3696985537
0.3565246914
0.3438965755
0.332110138
0.3212097616
0.3111418749
0.3018255079
0.293178634
0.2851259339
0.2776000191
0.2705407076
0.2638937748
0.2576091581
0.2516378305
0.245924826
0.2403912474
0.2348847487
0.2290394324
0.2218787305
0.2107468726
0.1889690647
0.1442487786
0.3033272569
0.3311448938
0.3571901362
0.3773760673
0.3885795217
0.3903440587
0.3846867691
0.374564902
0.362514718
0.3501445407
0.3382517752
0.3271318568
0.316834794
0.3073141183
0.2984955877
0.2903030284
0.2826661227
0.2755217354
0.2688133266
0.262489718
0.2565032492
0.2508064363
0.2453443942
0.2400355335
0.2347193414
0.2290115101
0.2219017758
0.2106960839
0.1887686948
0.1442163283
0.2923464819
0.3201116869
0.3462390025
0.3666895945
0.3783655753
0.3807921097
0.3759259553
0.3666481955
0.3554314479
0.343845917
0.3326738046
0.3222092856
0.3125072229
0.3035276306
0.2952024971
0.2874611366
0.2802379669
0.2734739173
0.2671159539
0.2611158388
0.255428234
0.2500070728
0.2447973578
0.2397144641
0.2345891643
0.2290180453
0.2219568822
0.2106751469
0.1886016027
0.1442250449
0.2817551093
0.3094222881
0.3355861247
0.3562581272
0.3683669661
0.3714197693
0.3673131866
0.3588525194
0.3484470269
0.3376286377
0.3271637558
0.3173445305
0.3082299325
0.2997858477
0.2919500284
0.2846569391
0.2778454899
0.2714605214
0.2654523979
0.2597757513
0.2543874951
0.249242884
0.2442866248
0.2394307236
0.2344966947
0.229061364
0.222046353
0.2106865898
0.1884706493
0.1442775783
0.2715327179
0.29905998
0.325217905
0.3460705857
0.358574736
0.3622200853
0.3588435362
0.3511749745
0.3415604552
0.3314933741
0.3217236894
0.3125407476
0.3040068946
0.2960932897
0.2887430162
0.2818953885
0.2754936005
0.2694862933
0.2638271452
0.2584736362
0.2533848798
0.2485173782
0.2438153743
0.2391871841
0.2344445355
0.229143876
0.222172567
0.2107330299
0.1883788119
0.1443767269
0.2616592919
0.2890083138
0.3151209521
0.336116097
0.3489801917
0.3531864856
0.3505126443
0.3436134294
0.3347717153
0.3254419613
0.3163569687
0.3078024746
0.2998434778
0.2924558434
0.2855875931
0.2791826276
0.2731882752
0.2675569019
0.2622454779
0.2572143212
0.2524247496
0.2478344535
0.2433870641
0.2389868965
0.2344353904
0.2292680368
0.2223379343
0.2108171358
0.1883291547
0.1445254435
0.2521150248
0.2792509472
0.30528196
0.326383937
0.3395749296
0.3443129134
0.3423169314
0.3361668484
0.3280821679
0.3194778419
0.3110687173
0.3031360774
0.2957468702
0.2888811407
0.2824915098
0.2765262593
0.2709367739
0.2656791126
0.2607135829
0.2560033752
0.251512035
0.2471984243
0.2430054262
0.2388330697
0.2344720207
0.2294362995
0.2225448396
0.210941576
0.1883248074
0.1447268383
0.2428801283
0.2697714578
0.2956875907
0.3168635029
0.3303509354
0.3355940542
0.3342539962
0.3288357955
0.3214951377
0.3136066972
0.3058664472
0.2985503501
0.2917266229
0.2853790348
0.2794645333
0.2739356736
0.2687478886
0.2638609882
0.2592387036
0.2548471936
0.2506522995
0.2466140469
0.2426744682
0.2387290311
0.2345571872
0.2296510328
0.2227955559
0.2111089472
0.1883689157
0.1449841585
0.2339343164
0.260553031
0.286324307
0.3075443322
0.3213008074
0.3270257914
0.3263232639
0.3216232382
0.315016825
0.3078373858
0.3007609716
0.2940573496
0.2877953862
0.2819622144
0.2765189592
0.271422453
0.2666322686
0.2621121232
0.2578293253
0.25375314
0.2498518154
0.2460865619
0.2423984714
0.2386782002
0.2346935858
0.2299144272
0.2230921365
0.2113216698
0.1884645751
0.1453007962
0.2252568936
0.2515782928
0.2771782792
0.2984162306
0.3124181814
0.3186059427
0.318526982
0.3145357528
0.308657595
0.302183227
0.2957676104
0.2896734734
0.2839698274
0.2786469688
0.2736702155
0.269000843
0.2646027861
0.2604439201
0.2564953629
0.252729687
0.2491176665
0.2456217464
0.2421819998
0.2386840466
0.2348837547
0.2302283638
0.2234362577
0.2115818343
0.1886147259
0.1456802417
0.2168243328
0.2428282809
0.2682351516
0.2894696872
0.3036987375
0.3103357778
0.3108721397
0.3075856506
0.3024341609
0.2966640885
0.290908087
0.2854211053
0.2802720135
0.2754543221
0.270937787
0.2666884945
0.2626751271
0.2588700754
0.2552485725
0.2517867324
0.2484580003
0.2452261058
0.2420300287
0.2387501455
0.2351300592
0.2305943212
0.2238290561
0.2118910188
0.1888220215
0.1461260874
0.2086142713
0.2342835124
0.2594804747
0.2806965893
0.2951415318
0.3022219698
0.3033728671
0.3007935804
0.2963721338
0.2913087186
0.28621251
0.2813302193
0.2767306531
0.2724109486
0.268345887
0.2645069593
0.2608681626
0.2574068631
0.2541027705
0.2509357854
0.2478821642
0.2449069556
0.2419479632
0.2388801239
0.2354345471
0.2310131291
0.224270798
0.2122499121
0.1890884933
0.1466417884
0.2005888764
0.2259181817
0.250899104
0.2720927077
0.2867535108
0.2942823618
0.2960568032
0.2941949721
0.2905121389
0.2861602663
0.2817241958
0.2774424999
0.2733845886
0.2695521621
0.2659260198
0.2624839356
0.2592059504
0.2560749436
0.2530754725
0.250191451
0.2474020446
0.2446736106
0.2419426548
0.2390784837
0.2357995527
0.2314853302
0.2247609885
0.2126582281
0.1894154728
0.1472309606
0.1927344361
0.2177134051
0.2424794013
0.2636597003
0.2785517397
0.2865488994
0.2889683141
0.2878429168
0.2849118989
0.2812773472
0.2774997443
0.2738105847
0.2702814378
0.2669201897
0.2637150978
0.2606513631
0.2577158951
0.2548976355
0.2521863016
0.249569964
0.2470307128
0.2445361121
0.2420211947
0.2393494227
0.2362264986
0.2320099123
0.2252969848
0.2131131904
0.1898019255
0.1478952885
0.1849372841
0.2096167511
0.2342107637
0.2554210252
0.2705878777
0.2790951588
0.2821961254
0.2818343739
0.279670297
0.2767557792
0.2736285738
0.2705157051
0.2674936777
0.2645789868
0.2617692159
0.2590582982
0.2564408115
0.2539121932
0.2514674914
0.249098926
0.2467913768
0.2445133961
0.2421982642
0.2397033267
0.2367214732
0.2325888728
0.2258774482
0.21361192
0.1902466284
0.1486388067
0.1773010474
0.2016503985
0.2261077881
0.2474150894
0.2629317441
0.2720173146
0.2758522226
0.2762860514
0.2748998301
0.2726980367
0.2702003147
0.2676340996
0.2650850115
0.2625812622
0.2601317918
0.257740425
0.2554099468
0.2531424317
0.2509381497
0.2487932248
0.2466950036
0.2446126364
0.2424772504
0.2401397074
0.2372800257
0.2332138777
0.2264907201
0.2141409213
0.1907364525
0.1494497172
0.1692555939
0.1936354785
0.2182158741
0.2398217437
0.2558380847
0.2656040595
0.2702322889
0.2714831537
0.2708647724
0.269342678
0.2674271441
0.2653533962
0.2632214661
0.2610745533
0.2589346418
0.2568160867
0.2547298851
0.2526844269
0.2506847313
0.2487302743
0.2468102898
0.2448938973
0.2429094206
0.2407006518
0.2379344872
0.233906916
0.2271483489
0.2147031883
0.1912735575
0.1503448705
0.1618322405
0.1859333191
0.2106741885
0.2327557999
0.2494566612
0.2600298263
0.2655040315
0.2675612288
0.2676564365
0.266735713
0.2653150935
0.2636474454
0.2618525126
0.2599906063
0.2580970146
0.2561959694
0.2543056935
0.2524398491
0.2506072286
0.2488097781
0.2470377852
0.2452595764
0.2433999464
0.2412950585
0.2385985401
0.2345875544
0.2277763755
0.2152293584
0.1917830498
0.151222503
0.1516809344
0.1778405742
0.2041323538
0.2274303912
0.2451233705
0.2565540554
0.2627862722
0.2654935432
0.2661202888
0.2656190291
0.2645253041
0.2631148601
0.2615274683
0.2598385767
0.2580940962
0.2563255158
0.2545559879
0.2528025194
0.2510760255
0.2493794302
0.2477026406
0.2460117027
0.2442262426
0.2421730421
0.2394909074
0.2354379415
0.2285159281
0.2158223369
0.1923603741
0.152246452
0.1460003938
0.1715777833
0.1986354275
0.2232237201
0.2420775327
0.2543370887
0.2611185838
0.2641850631
0.2650465306
0.2647014397
0.263718209
0.2623946215
0.2608837935
0.2592684979
0.2575983077
0.2559064334
0.2542167201
0.2525463336
0.2509059341
0.2492976915
0.2477100316
0.2461062834
0.244401399
0.2424146019
0.2397735421
0.2357228494
0.2287565653
0.2159949235
0.1925480228
0.1527820117
0.1275055879
0.1672532068
0.2015655557
0.2283827159
0.2471801167
0.2586310442
0.2645466817
0.2669333766
0.2673261869
0.2666769695
0.2655031974
0.2640651329
0.2624911665
0.2608481097
0.2591750376
0.2574979646
0.2558354786
0.2542005142
0.252599843
0.2510314305
0.2494784063
0.2478966329
0.2461900061
0.2441613878
0.2414157869
0.2371723701
0.2299166147
0.2168382985
0.1933005318
0.1540557323
0.1234370574
0.163505524
0.1987102348
0.2260632673
0.2452151178
0.2570225524
0.2632551348
0.2658808159
0.266453583
0.2659559287
0.264923217
0.2636216304
0.2621798903
0.2606637496
0.2591114958
0.2575488306
0.2559943666
0.2544611331
0.2529558944
0.2514763333
0.2500048085
0.2484956779
0.2468502221
0.2448671814
0.2421455803
0.2378966259
0.2305972592
0.2174364506
0.1938102239
0.1546141186
0.1335454398
0.1604070792
0.1887407268
0.2145394084
0.2346884734
0.2482622141
0.2561889204
0.2601517534
0.2617046903
0.2619249172
0.2614391774
0.2605749349
0.2594964337
0.2582894627
0.2570044321
0.2556753534
0.2543272648
0.2529785578
0.2516407024
0.2503156918
0.2489900271
0.2476222974
0.2461183381
0.2442818307
0.2417164098
0.2376341633
0.2304981239
0.2174430986
0.1937585875
0.1543943221
0.1341987933
0.1600579787
0.1866991117
0.2110882886
0.2306253798
0.2442605508
0.2525708768
0.2569812654
0.2589398131
0.2595088277
0.2593294334
0.2587437468
0.2579243769
0.2569607584
0.2559047478
0.254791138
0.2536457144
0.252487735
0.2513296133
0.2501742601
0.2490089136
0.2477924637
0.2464301113
0.244722927
0.242267858
0.2382622816
0.2311403092
0.2179922746
0.1940956642
0.1546260219
0.136527835
0.1602754344
0.1851595822
0.2082582935
0.2271527844
0.2407065564
0.2492440577
0.2539760901
0.2562453592
0.2570877279
0.2571503578
0.2567865068
0.2561760999
0.2554118202
0.2545465204
0.2536151763
0.2526436582
0.2516514543
0.2506513856
0.2496468856
0.2486257168
0.2475470979
0.2463159463
0.2447315626
0.2423857476
0.2384635664
0.2313732642
0.2181612459
0.1940748142
0.1544704157
0.1374885613
0.160392858
0.1844154133
0.2067563693
0.2251526155
0.2385160792
0.2470833577
0.2519459108
0.2543700634
0.2553634533
0.2555702827
0.2553475613
0.2548780125
0.2542549832
0.2535307115
0.2527391593
0.251905248
0.2510477298
0.2501788916
0.2493017402
0.2484035604
0.2474427687
0.2463226425
0.2448390072
0.2425764478
0.2387056812
0.2316086027
0.2182930526
0.1939984867
0.154303445
0.1382825894
0.1604905621
0.1838940554
0.2057236653
0.2237669428
0.2369681433
0.2455220247
0.2504481967
0.252961533
0.2540485149
0.2543498623
0.2542243005
0.2538558052
0.2533375083
0.2527205575
0.2520376053
0.2513123857
0.2505626809
0.2497999874
0.2490265951
0.2482289735
0.2473643424
0.2463338918
0.2449295176
0.2427282788
0.2388867324
0.2317619342
0.2183278182
0.1938258054
0.1540622891
0.1387884443
0.1604938157
0.1834658419
0.2049726654
0.2227972514
0.2358909577
0.2444267824
0.2493836627
0.2519459033
0.2530877265
0.2534485469
0.2533885619
0.2530923096
0.2526521385
0.2521177105
0.2515200816
0.2508815646
0.2502187517
0.2495421214
0.2488529931
0.2481367306
0.2473490197
0.2463885894
0.2450430563
0.2428817931
0.2390476234
0.2318746834
0.2183084955
0.1936043872
0.1538058367
0.1391622258
0.1604419568
0.183068568
0.2043564467
0.22205517
0.2350959794
0.2436302532
0.2486103455
0.2512030434
0.2523778025
0.2527759491
0.2527602275
0.2525159771
0.2521347293
0.2516645475
0.251134757
0.2505661096
0.2499738645
0.2493673317
0.2487467013
0.2480960617
0.2473693975
0.2464628418
0.2451597026
0.2430218663
0.2391791669
0.2319451772
0.2182415615
0.1933455561
0.1535399117
0.1394339981
0.1603457113
0.1826793141
0.2038110096
0.2214485612
0.2344829973
0.24303819
0.2480455118
0.2506618941
0.2518574974
0.2522786241
0.2522921018
0.2520848027
0.2517477668
0.2513275739
0.2508518225
0.2503396472
0.2498048878
0.2492555841
0.2486906883
0.2480929086
0.247414444
0.2465487967
0.2452750011
0.243147916
0.2392853928
0.2319820581
0.2181394669
0.1930634213
0.1532761787
0.1396407321
0.160221545
0.1822922009
0.2033023908
0.2209204006
0.2339840861
0.2425822356
0.2476259851
0.2502661599
0.2514770912
0.2519124689
0.2519447306
0.2517632072
0.251458981
0.251077432
0.2506445611
0.2501779215
0.2496899176
0.2491872768
0.248667664
0.2481123656
0.2474717695
0.2466367946
0.2453824774
0.2432570098
0.2393670695
0.2319898305
0.2180095187
0.1927654428
0.1530178745
0.1398008057
0.1600792412
0.1819065806
0.2028141142
0.220438524
0.2335575249
0.2422178106
0.2473087431
0.2499764073
0.2512012377
0.251645999
0.2516900306
0.2515260409
0.2512457654
0.2508937611
0.2504946445
0.2500644974
0.2496143348
0.2491495836
0.2486666178
0.2481453023
0.2475342737
0.2467219824
0.2454796635
0.2433492504
0.2394269176
0.2319735066
0.217858007
0.1924571732
0.1527670514
0.1399278099
0.1599262904
0.1815240291
0.2023383012
0.2199841772
0.2331766839
0.2419146921
0.2470632818
0.2497637474
0.2510034812
0.2514553771
0.2515066647
0.2513542397
0.2510910877
0.2507613501
0.2503885191
0.2499873637
0.2495676021
0.249133414
0.2486799259
0.2481856352
0.2475974938
0.2468016168
0.2455656545
0.2434256236
0.2394677095
0.2319372278
0.2176895429
0.192142156
0.1525241473
0.1400305097
0.1597676732
0.1811463772
0.201871441
0.2195465973
0.2328247511
0.2416526394
0.246868279
0.2496073398
0.2508643209
0.2513228184
0.251378655
0.2512335737
0.250982347
0.2506690969
0.2503164675
0.2499380947
0.2495425259
0.2491327833
0.2487028164
0.2482298276
0.2476591781
0.2468747807
0.2456408939
0.2434878892
0.2394923344
0.2318845919
0.2175077027
0.1918228625
0.1522891403
0.1401151311
0.1596068585
0.1807752594
0.2014121911
0.2191196406
0.2324910288
0.241417972
0.2467086945
0.2494920002
0.2507692095
0.2512348519
0.2512938107
0.2511531777
0.2509099727
0.2506086607
0.2502713036
0.2499106011
0.2495340669
0.2491436712
0.2487322761
0.2482758779
0.2477183476
0.2469415216
0.2457064279
0.2435379973
0.2395034332
0.2318185514
0.2173152014
0.1915010132
0.1520617491
0.1401860858
0.1594461967
0.1804119147
0.2009602278
0.2186998657
0.232168711
0.2412014065
0.2465738826
0.249406666
0.2507072962
0.2511812214
0.2512427436
0.2511046638
0.2508666042
0.250573687
0.2502476427
0.2499004252
0.2495386581
0.2491633742
0.2487664462
0.2483227582
0.2477747903
0.2470024153
0.2457635618
0.2435778647
0.239503326
0.2317415147
0.2171141337
0.191177863
0.1518416426
0.1402466068
0.1592872922
0.1800572052
0.200515672
0.2182854021
0.2318534513
0.2409966268
0.2464564888
0.249343143
0.2506702318
0.2511540325
0.2512181917
0.2510814966
0.250846492
0.2505592348
0.2502413465
0.2499042098
0.2495536986
0.249190023
0.2488041664
0.2483699928
0.2478286846
0.2470582492
0.2458136166
0.2436092241
0.2394939728