/*--------------------------------*- C++ -*----------------------------------*\
  =========                 |
  \\      /  F ield         | OpenFOAM: The Open Source CFD Toolbox
   \\    /   O peration     | Website:  https://openfoam.org
    \\  /    A nd           | Version:  8
     \\/     M anipulation  |
\*---------------------------------------------------------------------------*/
FoamFile
{
    version     2.0;
    format      ascii;
    class       volScalarField;
    location    "901";
    object      p;
}
// * * * * * * * * * * * * * * * * * * * * * * * * * * * * * * * * * * * * * //

dimensions      [0 2 -2 0 0 0 0];

internalField   nonuniform List<scalar> 
6300
(
3.393049969
3.690685166
3.883359374
4.13353384
4.485887118
4.881949538
5.269111284
5.619234355
5.92287351
6.179281109
6.389787312
6.555445591
6.676779708
6.754006373
6.787217591
6.776476386
6.72186132
6.623488456
6.481523208
6.296196586
6.067828005
5.796866641
5.483976447
5.130186359
4.736999514
4.306473085
3.844480817
3.370139056
2.874196706
2.14370597
7.268339838
6.840444932
6.152156072
5.574633915
5.219543488
5.04608393
4.972535505
4.933763634
4.897892106
4.857030934
4.813143072
4.769990979
4.730651423
4.697295581
4.67142608
4.654091487
4.646027327
4.647749674
4.659610322
4.68183242
4.71451923
4.757648194
4.81103855
4.874216648
4.945806997
5.023012387
5.107411845
5.21404232
5.289901278
5.035801937
11.09276241
10.81933565
10.25608348
9.716704996
9.350627618
9.176336268
9.133924864
9.148523169
9.171842154
9.185874033
9.18888802
9.183910273
9.174078072
9.161729014
9.148522241
9.135647063
9.123963414
9.114084636
9.10642565
9.10121964
9.098508755
9.098113347
9.099581429
9.102023843
9.10352933
9.101364938
9.099385246
9.112693494
9.0740694
8.730044547
14.978918
14.75667514
14.24407484
13.699975
13.28450177
13.05573769
12.97996666
12.98391858
13.00886193
13.02761764
13.03432029
13.03105045
13.02106984
13.00699617
12.9907158
12.97358248
12.95657097
12.94037134
12.92544307
12.91203058
12.90016393
12.88963209
12.87994732
12.87020379
12.85862019
12.84320116
12.82916002
12.83040519
12.77697228
12.43324
18.86739415
18.65211298
18.15591591
17.60532134
17.15284536
16.87529273
16.76049657
16.74267444
16.7583348
16.77308391
16.77678784
16.77012492
16.75622531
16.73788708
16.71718754
16.69563495
16.67432376
16.65403747
16.6353052
16.61842718
16.60347491
16.59027071
16.57836168
16.56688836
16.5542158
16.53872609
16.52571915
16.52742126
16.47528347
16.14831238
22.78771908
22.5614283
22.06754612
21.51188165
21.03395603
20.71800393
20.56773182
20.52655025
20.52998668
20.53843102
20.53771352
20.52678182
20.50836748
20.48531145
20.45981881
20.43352147
20.40762179
20.38299407
20.36024107
20.33972361
20.32155734
20.30560128
20.29142787
20.27821284
20.26441948
20.24863276
20.23603978
20.23791201
20.18830263
19.87859712
26.73931348
26.48851782
25.98398555
25.41894498
24.91957487
24.57133371
24.38850695
24.32309037
24.31177896
24.3115329
24.30468309
24.28834243
24.26465037
24.23636412
24.20574652
24.17451113
24.14394209
24.11498718
24.08831237
24.06433015
24.04319776
24.02480558
24.00875601
23.9942671
23.97989854
23.96440201
23.95295137
23.95642712
23.91144738
23.61915408
30.71414283
30.42990257
29.90513556
29.32571839
28.80579897
28.42893819
28.2159947
28.12613559
28.0982572
28.08728276
28.07268343
28.04979158
28.02003946
27.98600358
27.9499388
27.91360088
27.87832848
27.84512332
27.8147046
27.78752702
27.76378701
27.74341012
27.72603787
27.7109447
27.69679466
27.68250952
27.67333722
27.67995791
27.6411097
27.36590402
34.70607848
34.38296368
33.83147082
33.23336944
32.69253754
32.28930703
32.04832614
31.93437173
31.88885963
31.86566
31.84200161
31.8115822
31.77507881
31.73481868
31.69299975
31.65138506
31.6113428
31.57391413
31.53985638
31.50966591
31.48357693
31.46155476
31.44328854
31.42812062
31.4148248
31.40250592
31.39652221
31.40736791
31.37543765
31.11672661
38.71059552
38.34533618
37.7626516
37.14229297
36.57957
36.151203
35.88377992
35.74626521
35.68250797
35.64596914
35.61216667
35.57335517
35.52945968
35.48251509
35.4346271
35.38753896
35.3426299
35.30096636
35.26333822
35.23027587
35.20205381
35.17868002
35.15990003
35.14513026
35.13325992
35.12357698
35.12154785
35.13741228
35.11288429
34.87015713
42.72433112
42.31496978
41.6979705
41.05244895
40.46661387
40.01365928
39.72092964
39.56039254
39.47804657
39.4273303
39.38248151
39.33451203
39.28262904
39.22855499
39.17427978
39.12150749
39.071614
39.02568135
38.98452593
38.9487107
38.91854739
38.89409442
38.87515459
38.86122109
38.85129918
38.844851
38.84742005
38.86890303
38.85213243
38.62503847
46.74478113
46.29016293
45.63662158
44.96358306
44.35335968
43.87591973
43.55863099
43.37552538
43.27439136
43.20885326
43.15220114
43.0943928
43.03396975
42.97233938
42.91135976
42.85268594
42.79767918
42.74742909
42.70277275
42.66430547
42.63237733
42.60709508
42.58832308
42.57563276
42.56813759
42.56545662
42.57316013
42.60073152
42.59203207
42.38037983
50.77002043
50.26948356
49.57776959
48.87528727
48.23943018
47.73731786
47.39590385
47.19056363
47.07050632
46.98963089
46.92052842
46.8522722
46.78279677
46.71320187
46.64520757
46.58041032
46.52015178
46.4655234
46.41738096
46.37634842
46.342816
46.31693944
46.29864141
46.28756712
46.28293346
46.28449011
46.29778276
46.33183509
46.33152553
46.13526813
54.79850193
54.2516894
53.52057265
52.78704367
52.12436872
51.59720888
51.23185969
51.00449045
50.86538871
50.76874385
50.68662591
50.60736848
50.52836157
50.45041059
50.37509734
50.30395468
50.23830072
50.17922639
50.12760249
50.08408108
50.0490909
50.0228341
50.00529361
49.99618254
49.99480624
50.00101895
50.02029396
50.06117797
50.06960844
49.88882585
58.82891688
58.23566188
57.46418164
56.69824493
56.00763915
55.4549369
55.06565276
54.81633842
54.65805515
54.54525506
54.44961462
54.35884706
54.26985682
54.1831729
54.10024126
54.02253086
53.95133303
53.88773669
53.83262677
53.78668173
53.75036708
53.72393062
53.70741
53.70058011
53.70282221
53.71406811
53.73968134
53.78772965
53.80529064
53.64016922
62.86010772
62.22036233
61.40774093
60.60821395
59.88862792
59.3098078
58.89644182
58.6251556
58.44752384
58.31820714
58.20857624
58.10582201
58.00641793
57.91063655
57.81979288
57.73529153
57.65839823
57.59019751
57.53158734
57.48327186
57.44575195
57.41931975
57.40406137
57.39980641
57.40599955
57.42262555
57.45490281
57.51044642
57.53757572
57.38839399
66.89100003
66.20478867
65.35037193
64.51620249
63.76664307
63.16107675
62.72336765
62.42998611
62.23279914
62.0866118
61.96254634
61.84735148
61.73711836
61.63188239
61.53283409
61.44131781
61.35857231
61.28567814
61.22354572
61.17290322
61.1342852
61.10802519
61.09425397
61.09284665
61.10329924
61.12562794
61.1648827
61.22826368
61.26544975
61.13256471
70.92056088
70.18795044
69.29116824
68.42140016
67.64091835
67.00793906
66.54553444
66.2298489
66.01285604
65.84943898
65.71050863
65.5824334
65.46096577
65.3459239
65.23838118
65.13962318
65.05086306
64.97317896
64.90749259
64.85455604
64.81493536
64.78900056
64.77692218
64.7786177
64.79362114
64.82195976
64.86849964
64.94007623
64.98785312
64.87169059
74.94776692
74.16884564
73.22918114
72.32292515
71.51060449
70.84951668
70.36199067
70.02371901
69.78662736
69.60560934
69.45138666
69.30999975
69.17689754
69.05169987
68.93537079
68.82914084
68.73419981
68.65162246
68.58234207
68.52713244
68.48659088
68.46112256
68.45093251
68.45597002
68.47579942
68.51044544
68.5645788
68.64473529
68.70368712
68.60473295
78.9715784
78.14644044
77.16341107
76.21982663
75.37477602
74.6848599
74.17172442
73.81051798
73.55299058
73.3539836
73.18403914
73.02890971
72.88377479
72.74807126
72.62266088
72.50872333
72.40742739
72.31984531
72.24692148
72.18945231
72.14806181
72.12318695
72.1150656
72.12367367
72.14859657
72.18984261
72.25188519
72.34102904
72.41178563
72.33058223
82.99092106
82.11965607
81.0927982
80.11107476
79.23241685
78.51293135
77.97364736
77.58909997
77.31075715
77.0933505
76.90724782
76.73794303
76.58037371
76.43381007
76.29901951
76.17713431
76.06930293
75.97659587
75.8999708
75.84024435
75.79806712
75.77390566
75.76802427
75.78042077
75.81069761
75.85883508
75.92911259
76.02768237
76.11091809
76.04805954
87.00467149
86.08735428
85.01621101
83.99555856
83.08242506
82.33260736
81.76658743
81.35824089
81.05866259
80.82242161
80.61971123
80.43579141
80.26538128
80.10759836
79.96312198
79.83304071
79.71848602
79.62052759
79.54013509
79.47814423
79.43523268
79.41189262
79.40841355
79.42481262
79.46070101
79.51602613
79.59487739
79.70334238
79.79977883
79.75590587
91.01164238
90.04832623
88.93243877
87.87207632
86.9235993
86.14266644
85.54928181
85.1166275
84.79535457
84.53981931
84.3200362
84.12105211
83.93738674
83.7680168
83.61354175
83.47500889
83.35353424
83.25018939
83.16595457
83.10168584
83.05808481
83.03566878
83.03474927
83.05535888
83.09711483
83.15992669
83.24771038
83.36657158
83.47697241
83.45277028
95.01056964
94.00128151
92.84018167
91.73933009
90.75463771
89.94178302
89.32036501
88.86285004
88.51938298
88.24406592
88.00672767
87.79221615
87.59487004
87.41353715
87.24874089
87.10149293
86.97289478
86.86401938
86.77585964
86.70929232
86.66503956
86.64364402
86.64543665
86.67046446
86.71834778
86.78895448
86.88604376
87.01583898
87.14101244
87.13720955
99.00010688
97.94483813
96.73804165
95.59591584
94.57412631
93.72852045
93.07836126
92.59538913
92.22919057
91.93357565
91.67817957
91.44766445
91.23619974
91.04251609
90.86706787
90.71083118
90.57489694
90.46034139
90.36816872
90.29927373
90.254403
90.23411959
90.23877462
90.26842707
90.32269834
90.40141946
90.50821012
90.64950936
90.79030713
90.80767409
102.9788077
101.8775134
100.624514
99.44031843
98.38053547
97.50132131
96.8216761
96.31260768
95.92310241
95.60664376
95.33266449
95.08564963
94.85961553
94.65318156
94.4667385
94.30123203
94.15774261
94.03734803
93.94106728
93.86981304
93.82435281
93.80527148
93.81293731
93.84742269
93.90835177
93.99551515
94.11242543
94.2658371
94.42315412
94.46249881
106.9451196
105.7977106
104.4979754
103.2708966
102.1722057
101.2584985
100.5485835
100.0127376
99.59931224
99.26143241
98.96832182
98.70429475
98.4632242
98.24362789
98.04583703
97.87076876
97.7194952
97.59309894
97.49261007
97.41896066
97.37293772
97.35514755
97.3659757
97.40550622
97.47336656
97.56931506
97.69678688
97.86295273
98.03772437
98.09989576
110.8973775
109.7037148
108.3566781
107.0858813
105.9473427
104.9982258
104.2572181
103.6938719
103.2558737
102.8959639
102.5831474
102.3015742
102.0449834
101.8117986
101.6022964
101.4173673
101.2580758
101.1255097
101.0207106
100.9446262
100.8980667
100.8816563
100.8957985
100.9405901
101.015665
101.120756
101.2592539
101.4388569
101.6320637
101.7179465
114.8337826
113.5936765
112.198734
110.8833553
109.7040024
108.7185244
107.9455599
107.3539476
106.8906846
106.5081021
106.1749783
105.8753039
105.6026924
105.3554795
105.1338909
104.9387933
104.771244
104.632335
104.5231206
104.4445649
104.3974952
104.3825563
104.4001689
104.4504445
104.533026
104.6476318
104.7976482
104.9914075
105.2040679
105.314582
118.7524025
117.4656039
116.022109
114.661252
113.4400825
112.4172531
111.6114249
110.9907359
110.5014751
110.0955433
109.7414837
109.4231295
109.1339777
108.8722829
108.6382227
108.4326422
108.2565918
108.1111664
107.9974317
107.9163677
107.8688187
107.8554482
107.8766939
107.9326834
108.023074
108.1475821
108.3096349
108.5183069
108.7514813
108.8875828
122.6511566
121.3173506
119.8246046
118.4173326
117.1533069
116.0920937
115.2524477
114.6018256
114.085791
113.6557949
113.2801392
112.9425049
112.6362767
112.3596335
112.112708
111.896324
111.7115266
111.5594133
111.4410576
111.3574534
111.3094609
111.2977607
111.322808
111.3847486
111.4832623
111.6180798
111.7927145
112.0170943
112.2718807
112.4345569
126.527799
125.1466032
123.6038518
122.1491813
120.8412123
119.7405333
118.8660658
118.1846045
117.6409766
117.1861658
116.788224
116.4306831
116.1068229
115.8147514
115.5545596
115.3270507
115.1332614
114.9742913
114.8512198
114.7650506
114.7166587
114.70674
114.7357668
114.8039092
114.9108731
115.0564224
115.2442098
115.4851282
115.7626622
115.952931
130.3799121
128.9508655
127.3572887
125.8541818
124.5011307
123.3598518
122.4495052
121.7362466
121.1641563
120.6837379
120.2627883
119.884691
119.5426268
119.234637
118.9607731
118.721817
118.5187962
118.3528079
118.2249354
118.1361893
118.087454
118.0794393
118.1126362
118.1872383
118.3029899
118.4597115
118.6612521
118.9195779
119.2210296
119.4399354
134.2048929
132.7274498
131.0821529
129.5295089
128.1301756
126.947099
125.9997543
125.2536837
124.6522141
124.1453539
123.7006407
123.3013131
122.9404569
122.6160507
122.3281076
122.0773867
121.8649042
121.6917505
121.5590071
121.4676858
121.418678
121.4127044
121.4502722
121.5316054
121.6564992
121.8248531
122.0407712
122.317405
122.6439745
122.8925861
137.999933
136.4734539
134.7754566
133.1720987
131.7252116
130.4990725
129.5135453
128.7335865
128.1017657
127.5675862
127.0983208
126.6770647
126.2968148
125.9554898
125.6530639
125.390272
125.168113
124.9876654
124.850001
124.7561287
124.7069394
124.7031601
124.7453168
124.8336672
124.9680674
125.1485278
125.3794744
125.6753482
126.028262
126.3076684
141.7620068
140.1857467
138.4339725
136.7786398
135.2828459
134.0122986
132.9873288
132.1723378
131.5091361
130.9467129
130.4520721
130.0081689
129.6079141
129.2491683
128.9318665
128.6567141
128.4246865
128.236842
128.094236
127.9978625
127.9486066
127.9471985
127.9941789
128.0898451
128.2341313
128.4271909
128.6738382
128.989912
129.3704196
129.6817207
145.4878577
143.8609536
142.0542103
140.3455367
138.7993849
137.4829931
136.4172382
135.5659986
134.8703252
134.2786856
133.7578133
133.2905255
132.8696496
132.4929896
132.1604371
131.872662
131.6306079
131.4353008
131.2877668
131.1889779
131.1398024
131.1409652
131.1930232
131.2963194
131.4508836
131.6570481
131.9200867
132.2573418
132.6667026
133.0110067
149.1739703
147.4954239
145.6323883
143.8688907
142.2708185
140.9070392
139.7990601
138.910272
138.1809693
137.5590928
137.0111017
136.5196778
136.0775684
135.6825186
135.3343707
135.0337512
134.781556
134.5787672
134.4263682
134.3252909
134.2763773
134.2803428
134.3377558
134.4490112
134.6142543
134.8340384
135.1141756
135.4736098
135.9130891
136.2915022
152.8165642
151.0852224
149.1644153
147.3444642
145.6927728
144.2799416
143.128191
142.2004634
141.4363026
140.7831168
140.207092
139.6907758
139.2268344
138.8129503
138.4489086
138.1352757
137.8728871
137.6626602
137.5055158
137.4023327
137.353911
137.3609437
137.4240106
137.5435693
137.7199016
137.9538279
138.2517763
138.6343898
139.1052459
139.51886
156.4115591
154.6260883
152.6458449
150.7676419
149.0604737
147.5967794
146.3995868
145.431428
144.631104
143.9454901
143.3404965
142.7985362
142.3121932
141.8790798
141.4989098
141.1721711
140.8996148
140.6820722
140.5203782
140.415335
140.3676844
140.3780893
140.4471375
140.5753562
140.7631912
141.0117796
141.3282499
141.7350413
142.2385108
142.6883918
159.9545619
158.1134166
156.071851
154.1333886
152.3686932
150.8521547
149.6077031
148.5975098
147.7596388
147.0404317
146.4055228
145.8371888
145.3279258
144.8752617
144.4788183
144.1389813
143.8563885
143.6317519
143.4657937
143.3592161
143.3126812
143.3268073
143.4021888
143.5394329
143.7391802
144.0029424
144.3386329
144.7705731
145.3078517
145.7950266
163.4408434
161.5422191
159.4371737
157.4361919
155.6116864
154.0401188
152.7464263
151.6924675
150.8155852
150.0615838
149.3958202
148.8004306
148.2678086
147.7953785
147.3826414
147.0298444
146.7374756
146.5060925
146.3362682
146.2285728
146.1835675
146.2018116
146.2839029
146.4305434
146.6426024
146.9220242
147.2776033
147.735627
148.3078515
148.833285
166.8653002
164.9070842
162.7360709
160.6699976
158.7831143
157.1540878
155.80898
154.7093902
153.791952
153.0019342
152.3044091
151.6813604
151.1250599
150.6327968
150.2039102
149.8384634
149.5367472
149.2991183
149.1259594
149.0176724
148.9746912
148.9975019
149.0867031
149.2431064
149.467848
149.7633761
150.1394589
150.624433
151.2326518
151.7972291
170.2224419
168.2021363
165.9622504
163.8281236
161.8759435
160.1867343
158.7878115
157.6405767
156.680969
155.8537168
155.1235962
154.4724173
153.892295
153.3803349
152.9356613
152.5580952
152.2476683
152.0044805
151.828674
151.7204463
151.6800717
151.707946
151.8046703
151.9711869
152.2089422
152.5209613
152.9180858
153.4307798
154.0759194
154.6804155
173.5063526
171.420974
169.1087865
166.9031519
164.8823189
163.1298471
161.674454
160.477409
159.4739682
158.6083103
157.8448913
157.1653083
156.5614671
156.0302254
155.5704156
155.1815378
154.8632921
154.6154558
154.4378733
154.3304911
154.293398
154.326883
154.4315505
154.6084942
154.8595233
155.1883217
155.6069103
156.1479555
156.8307858
157.4758399
176.7106747
174.5566167
172.168018
169.8867919
167.7934006
165.9741534
164.4593418
163.2101741
162.1612291
161.2561093
160.4589069
159.7509448
159.123838
158.5740998
158.1001716
157.7011357
157.3762714
157.1249549
156.946674
156.8410761
156.8080298
156.8477076
156.9607216
157.1483481
157.412813
157.7585466
158.1988593
158.7686951
159.4897728
160.1758467
179.8285462
177.601386
175.1313793
172.7696574
170.5991062
168.709051
167.1315536
165.8278333
164.7317787
163.7863653
162.9552448
162.2193621
161.5699203
161.0029587
160.5163982
160.1087828
159.7788663
159.5255367
159.3478574
159.245133
159.2169861
159.2634596
159.3851861
159.5836556
159.8615729
160.2242115
160.6862854
161.2850968
162.0447052
162.7720388
182.8527014
180.546908
177.9892992
175.5411003
173.2879021
171.3223768
169.6785895
168.3178309
167.1732533
166.1871035
165.3224581
164.5597269
163.8895267
163.3072468
162.8101209
162.3960082
162.0630184
161.8094638
161.6339176
161.5352986
161.5129638
161.5668254
161.69755
161.90688
162.1980685
162.5773277
163.0608927
163.6885123
164.4865741
165.255127
185.7750548
183.383589
180.7305497
178.1884563
175.8460023
173.7996292
172.0856636
170.6654901
169.471403
168.4447368
167.5477726
166.7601428
166.0716308
165.4767426
164.9718236
164.553885
164.2202665
163.968616
163.7969623
163.7038086
163.6882332
163.7500236
163.8899062
164.10992
164.4139309
164.8091894
165.3135737
165.9693728
166.8053358
167.6147006
188.5880289
186.1016404
183.3430482
180.6976793
178.2579001
176.1244578
174.3362045
172.8545567
171.6107024
170.5447366
169.6177906
168.8083615
168.1050657
167.5012334
166.9920831
166.5736039
166.2422475
165.9949244
165.8290817
165.7427965
165.734877
165.8050057
165.9539954
166.1842236
166.5002365
166.9104132
167.4343842
168.1170877
168.9897428
169.8390084
191.2803034
188.6866253
185.8090267
183.048406
180.5015785
178.274203
176.4078451
174.8636843
173.5713024
172.4689948
171.5161947
170.6897598
169.9767027
169.3688335
168.859996
168.4449921
168.1192949
167.8790407
167.7210931
167.6431215
167.6436911
167.7224103
167.8802175
168.1198701
168.446644
168.8701182
169.4117648
170.1192841
171.0265695
171.914156
193.8504236
191.1318975
188.1170528
185.2254271
182.5594142
180.2303158
178.2824136
176.6760061
175.3381661
174.2044848
173.2318861
172.3949096
171.6784392
171.072394
170.5690148
170.1618045
169.8452246
169.6146556
169.4664245
169.3978466
169.4072973
169.4943595
169.6601297
169.907774
170.2433269
170.6775947
171.2339273
171.9628648
172.9012762
173.8244354
196.2642096
193.3962447
190.2183289
187.1756646
184.3773343
181.9404089
179.9111081
178.2473523
176.8720638
175.7166983
174.7345428
173.8969934
173.1862555
172.590047
172.0988783
171.7049504
171.4017875
171.1841219
171.0478531
170.9900439
171.0089625
171.1042193
171.2771036
171.5311999
171.8732873
172.3153665
172.8826149
173.6284363
174.5930767
175.5477264
198.5845455
195.5272476
192.1499443
188.9285213
185.9802899
183.4281034
181.3183534
179.6038859
178.2008974
177.0347077
176.0535782
175.2248945
174.5277362
173.9474754
173.4729472
173.0952168
172.8070718
172.6027942
172.4780327
172.4297348
172.4561561
172.5569942
172.7337476
172.9903959
173.3343885
173.7787759
174.3503211
175.1049993
176.0867016
177.0650414
200.5769224
197.2754619
193.6442622
190.2153969
187.1114936
184.4551165
182.2868948
180.549111
179.1470268
177.9971672
177.0413722
176.2424838
175.5764586
175.0266296
174.5805895
174.2287101
173.9634425
173.7789426
173.6708476
173.6361576
173.6732177
173.7818536
173.9637543
174.2232061
174.5681675
175.012476
175.5840796
176.3410755
177.3310685
178.3238456
202.8606889
199.2006235
195.2384826
191.5537199
188.2706068
185.5057622
183.2856508
181.5343961
180.1415332
179.0125549
178.082266
177.3092268
176.6669361
176.1374626
175.7078799
175.3684669
175.1117911
174.9322076
174.82557
174.7890777
174.8212548
174.9220918
175.0934544
175.3398553
175.6695723
176.0968457
176.6499331
177.3871684
178.3584744
179.3416051
203.5147965
199.3847464
194.9955607
191.0786257
187.7091118
184.9541718
182.8040092
181.1530632
179.8701319
178.8491129
178.0194988
177.3379895
176.7779275
176.3219917
175.95813
175.6774925
175.4733942
175.3407729
175.2758956
175.2762182
175.3403807
175.4683657
175.6619168
175.9253228
176.2665488
176.699415
177.2515293
177.9803151
178.9356678
179.8985016
207.6601515
202.6272715
197.6365252
193.3829421
189.8512595
187.0385836
184.8797003
183.2317641
181.945243
180.9081958
180.049989
179.3290675
178.7207983
178.2096307
177.7848974
177.4387656
177.1652772
176.9598791
176.8191994
176.7409612
176.724014
176.7685172
176.8763738
177.0520159
177.3035347
177.6447218
178.1017826
178.7262915
179.5630211
180.4272878
199.5449181
194.0036607
188.8114911
184.9414635
181.9845772
179.7600394
178.1549047
177.0089691
176.1709418
175.5371147
175.0473999
174.6690977
174.3839985
174.1809615
174.0522826
173.9920914
173.9956968
174.0593049
174.1798961
174.3551721
174.5835703
174.8643865
175.1980783
175.5868254
176.0352916
176.5522629
177.1574136
177.8940438
178.7904546
179.633259
220.1187709
211.4175459
204.6847076
200.2045241
196.880743
194.2925266
192.2708169
190.6524123
189.3004117
188.127448
187.084827
186.1457175
185.2941263
184.5193268
183.8133776
183.1700915
182.584625
182.0532844
181.5734422
181.1435194
180.7630601
180.4329477
180.155852
179.9370262
179.7854675
179.7157938
179.7538288
179.9492421
180.3606372
180.8875196
166.5278426
169.2201302
169.8194135
169.3020349
168.7025627
168.2971059
168.0878467
168.0252274
168.0589757
168.1543494
168.2938016
168.4710051
168.6847453
168.9353956
169.223461
169.5491708
169.9124736
170.3131229
170.7507762
171.2250812
171.7357619
172.2827477
172.866366
173.487643
174.1486209
174.852715
175.6057344
176.4133932
177.2411652
177.8874808
180.7244357
182.7864702
183.5842432
183.0490991
182.1068604
181.1847475
180.3934289
179.7410085
179.202526
178.748243
178.3563685
178.0142823
177.7153422
177.4559193
177.2337257
177.0470847
176.8946638
176.7753983
176.6884969
176.6334765
176.6102391
176.6192032
176.661507
176.7392929
176.8560277
177.0165622
177.2253763
177.4784851
177.7457388
177.9579483
174.8791802
176.330242
177.0650235
177.0352839
176.6384497
176.1446668
175.6841729
175.3020885
174.9986466
174.7590724
174.5696604
174.4219431
174.3115229
174.2361242
174.1943403
174.1850709
174.207335
174.2602368
174.3429875
174.4549374
174.5956175
174.7647898
174.9624831
175.1889666
175.444532
175.7287017
176.0372803
176.3529276
176.6277906
176.7839995
175.5253834
176.5698827
177.2268041
177.3378637
177.1220733
176.7651514
176.3816277
176.0286503
175.7237378
175.4653848
175.2475818
175.0656485
174.916938
174.8000201
174.7139412
174.6578587
174.6309297
174.6323087
174.6611819
174.7168003
174.798508
174.9057512
175.0380324
175.1947408
175.3747259
175.5751996
175.7879504
175.9885201
176.1252779
176.1575329
174.9633648
175.6395913
176.0815463
176.1969073
176.0937587
175.8719517
175.6073092
175.3472897
175.1124452
174.9073406
174.7310398
174.5822232
174.4603427
174.3653166
174.2971069
174.2555135
174.2401389
174.2504255
174.285707
174.3452462
174.428249
174.5338391
174.6609423
174.8080051
174.9724184
175.1492398
175.3271857
175.4780925
175.5502355
175.5194941
174.8498861
175.3088007
175.6120117
175.6991465
175.6394455
175.4909091
175.300898
175.1036196
174.9169156
174.7472523
174.5964521
174.4654356
174.3552254
174.2668273
174.2009822
174.1580647
174.1381006
174.1408332
174.1657858
174.2123044
174.2795622
174.3665116
174.471732
174.5930939
174.7271259
174.8676739
175.001877
175.1003209
175.1144256
175.0364047
174.6486654
174.9571355
175.1459667
175.1875142
175.1372748
175.0309379
174.8952656
174.751171
174.610714
174.4791533
174.3589422
174.2520376
174.1604085
174.0858292
174.0296515
173.9927331
173.9754759
173.9779024
173.9997257
174.0403913
174.0990764
174.174628
174.2653937
174.3688633
174.4810257
174.5950351
174.6973671
174.7589794
174.7357342
174.6306641
174.4774017
174.6893711
174.8002545
174.80153
174.7460369
174.66055
174.559675
174.4541442
174.3501333
174.2504649
174.1570013
174.0718575
173.997392
173.9358036
173.8888405
173.8577056
173.8430902
173.8452452
173.8640511
173.8990558
173.9494721
174.0141119
174.0912107
174.1780708
174.2704386
174.3612268
174.4368682
174.4694398
174.4194514
174.298059
174.2975507
174.4443072
174.4995286
174.4669267
174.4000524
174.3231572
174.2441999
174.1666631
174.0915825
174.0189746
173.9494435
173.8846672
173.8269563
173.7786371
173.7416528
173.7174167
173.7068173
173.7102779
173.7278153
173.7590743
173.8033223
173.8593833
173.925464
173.9988166
174.0751523
174.1474241
174.2023483
174.2133706
174.1452783
174.0149943
174.1203033
174.2229394
174.239728
174.1811021
174.1018492
174.0267989
173.9609006
173.9029078
173.849835
173.7990839
173.7497836
173.7028598
173.6602931
173.6243131
173.5968914
173.5795332
173.5732399
173.5785511
173.5955879
173.6240831
173.6633716
173.7123239
173.7691864
173.8312653
173.8943722
173.9516473
173.9902261
173.9848963
173.9041501
173.7691971
173.9443967
174.0164333
174.0064591
173.9283513
173.8376372
173.760931
173.7023333
173.6577246
173.6211444
173.5877667
173.5552679
173.5236975
173.4945445
173.4697934
173.4513208
173.4406258
173.4387542
173.4463105
173.4634914
173.4901037
173.5255552
173.5687907
173.6181418
173.6710276
173.7234303
173.7687449
173.7945435
173.7768048
173.6871522
173.5500612
173.771807
173.8223408
173.7938866
173.7016775
173.6012545
173.5213072
173.4663321
173.4306449
173.4061919
173.3863571
173.3675118
173.3488275
173.3312361
173.3163913
173.3059959
173.3014711
173.3038505
173.3137644
173.331457
173.3567977
173.3892675
173.4279001
173.4711351
173.5165375
173.56029
173.5960546
173.611793
173.5844842
173.4883957
173.350608
173.6030206
173.638219
173.5970712
173.4949251
173.3866801
173.3029553
173.2493038
173.2193709
173.2036951
173.1942737
173.1863653
173.1783254
173.1705258
173.1642557
173.1609936
173.1620398
173.1683739
173.1806201
173.1990483
173.2235783
173.2537614
173.288723
173.3270199
173.3663734
173.4031697
173.4313152
173.439093
173.4042995
173.3034647
173.1658275
173.4384232
173.4625803
173.4128465
173.3039598
173.1896632
173.1021913
173.0484656
173.0220589
173.0126192
173.011098
173.011833
173.0124615
173.0128275
173.0138527
173.0167722
173.0227385
173.0326512
173.0471047
173.0663777
173.0904278
173.1188703
173.1509186
173.1852477
173.2197289
173.2509372
173.2729872
173.2744084
173.2336672
173.1292658
172.9922915
173.2780608
173.2942201
173.2388317
173.1256238
173.0068208
172.9159092
172.8612935
172.8368724
172.8317668
172.8361442
172.8436207
172.8512244
172.8583177
172.8654676
172.8736659
172.8839053
172.8969917
172.9134746
172.9336276
172.9574346
172.9845666
173.0143179
173.0454738
173.0760434
173.1027651
173.1199218
173.1162202
173.0706832
172.9635738
172.8275955
173.1218502
173.1322071
173.0732749
172.9575704
172.8355634
172.7416449
172.6857195
172.6622263
172.6600053
172.6686974
172.6813697
172.6945299
172.7071071
172.7193412
172.7319907
172.7458893
172.7617434
172.7800498
172.8010664
172.8247944
172.8509499
172.8789006
172.9075276
172.9349613
172.9580787
172.9712889
172.9634197
172.913967
172.8047994
172.6700521
172.9696208
172.9757847
172.9148382
172.7980085
172.6738752
172.5774292
172.5200135
172.4967023
172.4962601
172.5080435
172.5246787
172.5422224
172.5592245
172.575634
172.5919947
172.6089898
172.6272248
172.6471397
172.6689706
172.6927286
172.7181663
172.7447117
172.7713283
172.7962504
172.8164673
172.8264778
172.8151864
172.7625039
172.651791
172.5184542
172.821173
172.8243358
172.7624868
172.6455575
172.5201844
172.4217146
172.3627402
172.3390552
172.3395908
172.3535322
172.3731448
172.3941071
172.4146439
172.4344487
172.4538727
172.4734588
172.4937171
172.5150289
172.5376055
172.5614605
172.586375
172.6118269
172.6368493
172.6597601
172.6776359
172.685037
172.6709118
172.6155465
172.5037054
172.3719258
172.6762981
172.6773525
172.6154117
172.4991504
172.3732613
172.2732288
172.2126987
172.1882579
172.1891899
172.2045702
172.2263752
172.2499691
172.2733006
172.29584
172.3177674
172.339499
172.3614566
172.3839651
172.4072081
172.4311969
172.4557336
172.4803359
172.5040937
172.5253917
172.5413735
172.5466345
172.5301426
172.4725372
172.3599157
172.2298191
172.5347979
172.5344178
172.4729782
172.3579617
172.2321379
172.1309171
172.0688826
172.0434655
172.0443684
172.0606303
172.0840034
172.1095915
172.1351069
172.1598256
172.1837779
172.2072681
172.2306366
172.254156
172.2779815
172.302119
172.326384
172.3503259
172.3730788
172.3930811
172.4075243
172.4110196
172.392537
172.3330546
172.219948
172.0916416
172.3964886
172.3951834
172.3346741
172.221329
172.0960334
171.9939451
171.9304902
171.9039681
171.9045322
171.9212468
171.9456943
171.972762
171.9999589
172.0263946
172.0519679
172.0768834
172.1014099
172.1257713
172.1500951
172.1743797
172.1984491
172.2218762
172.2438286
172.2627858
172.2759738
172.2780025
172.2578341
172.1967777
172.0834382
171.9570112
172.261201
172.2593569
172.2000859
172.0887201
171.9643184
171.8616431
171.7968717
171.769173
171.7691745
171.7860123
171.8111456
171.839279
171.8677477
171.8955166
171.922371
171.948428
171.9738928
171.9989451
172.0236866
172.0481059
172.0720322
172.0950543
172.1163665
172.1344774
172.1466354
172.1474374
172.1258322
172.0634569
171.9501012
171.8256281
172.1287843
172.1266935
172.0688758
171.9597071
171.8364842