/*--------------------------------*- C++ -*----------------------------------*\
  =========                 |
  \\      /  F ield         | OpenFOAM: The Open Source CFD Toolbox
   \\    /   O peration     | Website:  https://openfoam.org
    \\  /    A nd           | Version:  8
     \\/     M anipulation  |
\*---------------------------------------------------------------------------*/
FoamFile
{
    version     2.0;
    format      ascii;
    class       surfaceScalarField;
    location    "901";
    object      phi;
}
// * * * * * * * * * * * * * * * * * * * * * * * * * * * * * * * * * * * * * //

dimensions      [0 3 -1 0 0 0 0];

internalField   nonuniform List<scalar> 
12360
(
-2.101893197e-12
-3.6313825e-13
-5.960615605e-12
9.504598784e-12
-1.198433015e-11
3.018955526e-11
-2.038664777e-11
6.264833429e-11
-3.144813368e-11
1.088178854e-10
-4.545652822e-11
1.713659279e-10
-6.26789936e-11
2.536488788e-10
-8.332732118e-11
3.595404801e-10
-1.075222555e-10
4.932414778e-10
-1.35264482e-10
6.59145843e-10
-1.664144527e-10
8.617676706e-10
-2.00679373e-10
1.105703575e-09
-2.37604736e-10
1.395610369e-09
-2.765685629e-10
1.736189065e-09
-3.167773026e-10
2.132172243e-09
-3.572629758e-10
2.588313976e-09
-3.968813572e-10
3.109381843e-09
-4.343106301e-10
3.700150576e-09
-4.680513396e-10
4.365397274e-09
-4.964265825e-10
5.109897901e-09
-5.17583385e-10
5.938423386e-09
-5.294947497e-10
6.855736953e-09
-5.299649629e-10
7.866590141e-09
-5.166370039e-10
8.975719608e-09
-4.870095431e-10
1.018785778e-08
-4.384698377e-10
1.150783912e-08
-3.683692026e-10
1.294127709e-08
-2.741578235e-10
1.449846152e-08
-1.532473524e-10
1.621571467e-08
1.827862304e-08
-1.523674563e-12
1.160536324e-12
-5.727604138e-12
1.370852837e-11
-1.239077735e-11
3.685272849e-11
-2.164134745e-11
7.189890439e-11
-3.365255985e-11
1.208290978e-10
-4.863234445e-11
1.863457126e-10
-6.679692612e-11
2.718134605e-10
-8.833049992e-11
3.810740539e-10
-1.133390045e-10
5.182499824e-10
-1.418116273e-10
6.876184658e-10
-1.735964564e-10
8.935524998e-10
-2.083874507e-10
1.140494569e-09
-2.457175246e-10
1.432940443e-09
-2.849543304e-10
1.775425871e-09
-3.252973834e-10
2.172515296e-09
-3.657759135e-10
2.628792507e-09
-4.05247529e-10
3.148853459e-09
-4.423974849e-10
3.737300532e-09
-4.757386232e-10
4.398738412e-09
-5.036116383e-10
5.137770916e-09
-5.241867909e-10
5.958998538e-09
-5.354659583e-10
6.86701612e-09
-5.35285914e-10
7.866410096e-09
-5.213245122e-10
8.961758206e-09
-4.911106691e-10
1.015764393e-08
-4.420440751e-10
1.145877253e-08
-3.71433997e-10
1.287066701e-08
-2.764987602e-10
1.440352628e-08
-1.540648101e-10
1.609328072e-08
1.812455823e-08
-1.328853291e-12
2.489389627e-12
-5.31383113e-12
1.769350622e-11
-1.205294421e-11
4.359184158e-11
-2.164319544e-11
8.148915565e-11
-3.417740118e-11
1.333633036e-10
-4.976912089e-11
2.019374323e-10
-6.855633616e-11
2.906006758e-10
-9.067365256e-11
4.031913703e-10
-1.162026971e-10
5.43779027e-10
-1.451231569e-10
7.165389256e-10
-1.772796306e-10
9.257089735e-10
-2.123643074e-10
1.175579246e-09
-2.499088406e-10
1.470484976e-09
-2.892802384e-10
1.814797268e-09
-3.296782995e-10
2.212913357e-09
-3.701338635e-10
2.669248071e-09
-4.095076695e-10
3.188227265e-09
-4.464894701e-10
3.774282333e-09
-4.795982002e-10
4.431847142e-09
-5.071820673e-10
5.165354784e-09
-5.274196477e-10
5.979236119e-09
-5.383215359e-10
6.877918009e-09
-5.377334228e-10
7.865821983e-09
-5.233410122e-10
8.947365796e-09
-4.926783902e-10
1.012698131e-08
-4.431455719e-10
1.140923971e-08
-3.720289129e-10
1.279955035e-08
-2.76492401e-10
1.430798977e-08
-1.535702823e-10
1.59703586e-08
1.797098794e-08
-1.261625954e-12
3.751015593e-12
-5.226792797e-12
2.165867308e-11
-1.210298201e-11
5.046803081e-11
-2.202034365e-11
9.14065173e-11
-3.505182805e-11
1.46394788e-10
-5.125706702e-11
2.181426713e-10
-7.070868521e-11
3.10052294e-10
-9.348424234e-11
4.259669275e-10
-1.19625526e-10
5.699203107e-10
-1.490876497e-10
7.460010493e-10
-1.817000183e-10
9.583213421e-10
-2.171445651e-10
1.211023793e-09
-2.549456465e-10
1.508286058e-09
-2.944653319e-10
1.854316954e-09
-3.349008029e-10
2.253348828e-09
-3.752827218e-10
2.70962999e-09
-4.144739098e-10
3.227418453e-09
-4.511691539e-10
3.810977577e-09
-4.838945825e-10
4.464572571e-09
-5.110085084e-10
5.19246871e-09
-5.307025669e-10
5.998930177e-09
-5.410035714e-10
6.888219013e-09
-5.397774401e-10
7.864595852e-09
-5.247346346e-10
8.93232299e-09
-4.934406299e-10
1.009568731e-08
-4.433307061e-10
1.135912979e-08
-3.717309572e-10
1.27279506e-08
-2.758844894e-10
1.421214331e-08
-1.530546982e-10
1.584752881e-08
1.781793325e-08
-1.260882628e-12
5.011898233e-12
-5.29863499e-12
2.569642546e-11
-1.235393188e-11
5.752332771e-11
-2.258012077e-11
1.016327062e-10
-3.605162317e-11
1.598662904e-10
-5.280302677e-11
2.348940749e-10
-7.28628468e-11
3.301121141e-10
-9.625967476e-11
4.493637555e-10
-1.22993731e-10
5.966543669e-10
-1.529901115e-10
7.759974298e-10
-1.860576833e-10
9.91388914e-10
-2.218640534e-10
1.246830163e-09
-2.599234222e-10
1.546345427e-09
-2.995910277e-10
1.893984559e-09
-3.40060287e-10
2.293818087e-09
-3.80361094e-10
2.749930797e-09
-4.193586911e-10
3.26641605e-09
-4.557531482e-10
3.847372034e-09
-4.880794888e-10
4.496898912e-09
-5.147083871e-10
5.219097608e-09
-5.338473291e-10
6.018069119e-09
-5.435437377e-10
6.897915422e-09
-5.416886155e-10
7.86274073e-09
-5.260228287e-10
8.916657204e-09
-4.941473326e-10
1.006381181e-08
-4.435371601e-10
1.130851961e-08
-3.715617021e-10
1.265597514e-08
-2.755327114e-10
1.411611431e-08
-1.528127999e-10
1.57248089e-08
1.766512045e-08
-1.301419287e-12
6.313317531e-12
-5.469613193e-12
2.986461938e-11
-1.274556045e-11
6.479927498e-11
-2.328868849e-11
1.121758343e-10
-3.71756113e-11
1.737532132e-10
-5.442906248e-11
2.521475261e-10
-7.504937164e-11
3.507324232e-10
-9.90270117e-11
4.733413955e-10
-1.263243327e-10
6.239516879e-10
-1.568355468e-10
8.06508644e-10
-1.903466411e-10
1.024900008e-09
-2.265086594e-10
1.282992181e-09
-2.648239103e-10
1.584660678e-09
-3.046395985e-10
1.933800248e-09
-3.451446225e-10
2.334323111e-09
-3.853677285e-10
2.790153903e-09
-4.241765692e-10
3.305224891e-09
-4.602770873e-10
3.883472552e-09
-4.922137885e-10
4.528835613e-09
-5.183704886e-10
5.245254308e-09
-5.369722199e-10
6.036670851e-09
-5.460877045e-10
6.907030906e-09
-5.43633702e-10
7.860286727e-09
-5.27381414e-10
8.900404916e-09
-4.949649914e-10
1.003139539e-08
-4.438949689e-10
1.125744959e-08
-3.715798155e-10
1.258365999e-08
-2.753807055e-10
1.40199152e-08
-1.527089723e-10
1.560213716e-08
1.751241147e-08
-1.362576823e-12
7.675894362e-12
-5.697815988e-12
3.419985855e-11
-1.322889765e-11
7.233035665e-11
-2.410681464e-11
1.230537513e-10
-3.840453597e-11
1.880509346e-10
-5.613681756e-11
2.698798077e-10
-7.728531666e-11
3.718809223e-10
-1.01811601e-10
4.978676799e-10
-1.296454575e-10
6.517855445e-10
-1.606516753e-10
8.375148618e-10
-1.945928926e-10
1.058841226e-09
-2.311026048e-10
1.319501894e-09
-2.696703401e-10
1.623228413e-09
-3.096345605e-10
1.973764468e-09
-3.501791724e-10
2.374867723e-09
-3.903315378e-10
2.830306268e-09
-4.289615319e-10
3.343854885e-09
-4.647809732e-10
3.919291993e-09
-4.963438859e-10
4.560398526e-09
-5.220475676e-10
5.27095799e-09
-5.401340702e-10
6.054757353e-09
-5.486933445e-10
6.915590181e-09
-5.45666992e-10
7.857260375e-09
-5.28854196e-10
8.88359212e-09
-4.959200931e-10
9.998461284e-09
-4.444066831e-10
1.120593618e-08
-3.71756855e-10
1.251101016e-08
-2.753701896e-10
1.392352854e-08
-1.52686158e-10
1.547945313e-08
1.735972531e-08
-1.433526683e-12
9.109421053e-12
-5.957154535e-12
3.872348641e-11
-1.376770812e-11
8.014091025e-11
-2.499775906e-11
1.342838022e-10
-3.970991287e-11
2.027630884e-10
-5.791036229e-11
2.880802571e-10
-7.956676808e-11
3.935373282e-10
-1.046183718e-10
5.229192836e-10
-1.329674298e-10
6.801346025e-10
-1.644517398e-10
8.689991718e-10
-1.988111662e-10
1.093200652e-09
-2.356614512e-10
1.356352179e-09
-2.744789714e-10
1.662045933e-09
-3.145930834e-10
2.01387858e-09
-3.551823522e-10
2.415456992e-09
-3.952725582e-10
2.870396474e-09
-4.337354945e-10
3.382317821e-09
-4.692885891e-10
3.954845088e-09
-5.004952717e-10
4.591605208e-09
-5.257655536e-10
5.296228271e-09
-5.433582759e-10
6.072350076e-09
-5.513833111e-10
6.923615216e-09
-5.478058485e-10
7.853682912e-09
-5.304512669e-10
8.866237538e-09
-4.970124418e-10
9.965022459e-09
-4.450610459e-10
1.115398478e-08
-3.720689213e-10
1.243801804e-08
-2.754673137e-10
1.382692693e-08
-1.52718979e-10
1.53567048e-08
1.720700634e-08
-1.509559032e-12
1.061898009e-11
-6.2343385e-12
4.344826588e-11
-1.434095208e-11
8.824752384e-11
-2.59373766e-11
1.458802267e-10
-4.107032785e-11
2.178960396e-10
-5.97351952e-11
3.067451245e-10
-8.188745184e-11
4.156895848e-10
-1.074482057e-10
5.484800374e-10
-1.362963371e-10
7.089827339e-10
-1.682452395e-10
9.009480743e-10
-2.030130704e-10
1.127968483e-09
-2.401980938e-10
1.393537202e-09
-2.792634497e-10
1.701111289e-09
-3.195292106e-10
2.054144341e-09
-3.601684244e-10
2.456096206e-09
-4.002049428e-10
2.910432992e-09
-4.385122578e-10
3.420625136e-09
-4.738130722e-10
3.990145902e-09
-5.046794626e-10
4.622471599e-09
-5.295340655e-10
5.321082874e-09
-5.466513513e-10
6.089467361e-09
-5.541602444e-10
6.931124109e-09
-5.500477713e-10
7.849570439e-09
-5.321638243e-10
8.848353591e-09
-4.982271629e-10
9.931085798e-09
-4.458355341e-10
1.110159316e-08
-3.724882269e-10
1.236467073e-08
-2.756446249e-10
1.373008333e-08
-1.527899138e-10
1.523385009e-08
1.705421642e-08
-1.588715618e-12
1.220769571e-11
-6.522964952e-12
4.838251522e-11
-1.493726271e-11
9.66618216e-11
-2.691132669e-11
1.578542907e-10
-4.247191391e-11
2.334566269e-10
-6.160116192e-11
3.258743725e-10
-8.424256685e-11
4.383309897e-10
-1.103016205e-10
5.74539091e-10
-1.396369751e-10
7.383180886e-10
-1.720399788e-10
9.33351078e-10
-2.072083643e-10
1.163136868e-09
-2.44723415e-10
1.431052253e-09
-2.840351568e-10
1.740423031e-09
-3.244543441e-10
2.094563528e-09
-3.651482912e-10
2.496790153e-09
-4.051387786e-10
2.95042348e-09
-4.433005813e-10
3.458786939e-09
-4.783613166e-10
4.025206638e-09
-5.089015119e-10
4.653011794e-09
-5.333551982e-10
5.345536561e-09
-5.500119207e-10
6.106124084e-09
-5.570185749e-10
6.938130763e-09
-5.523829714e-10
7.844934835e-09
-5.339774669e-10
8.829948087e-09
-4.995451267e-10
9.896653457e-09
-4.467080285e-10
1.104875606e-08
-3.729907429e-10
1.229095344e-08
-2.758807495e-10
1.363297334e-08
-1.528871235e-10
1.511085646e-08
1.69013293e-08
-1.670236082e-12
1.387793179e-11
-6.820021601e-12
5.353230074e-11
-1.555060824e-11
1.053924082e-10
-2.791125066e-11
1.702149331e-10
-4.390595165e-11
2.494513279e-10
-6.350139323e-11
3.454698141e-10
-8.662862437e-11
4.614582209e-10
-1.131788865e-10
6.010893531e-10
-1.429928513e-10
7.681320534e-10
-1.75841866e-10
9.662000927e-10
-2.114045103e-10
1.198699513e-09
-2.492457157e-10
1.468893458e-09
-2.888026338e-10
1.779979949e-09
-3.293767239e-10
2.135137618e-09
-3.701295535e-10
2.537542983e-09
-4.100803996e-10
2.990374326e-09
-4.4810532e-10
3.496811859e-09
-4.829363675e-10
4.060037685e-09
-5.131617704e-10
4.683237197e-09
-5.37226786e-10
5.369601576e-09
-5.534348067e-10
6.122332105e-09
-5.599501105e-10
6.944646067e-09
-5.547995628e-10
7.839784288e-09
-5.358772137e-10
8.811025737e-09
-5.009483366e-10
9.86172458e-09
-4.476587758e-10
1.09954665e-08
-3.735572939e-10
1.221685196e-08
-2.761600952e-10
1.353557614e-08
-1.530032218e-10
1.498769959e-08
1.674832608e-08
-1.753868783e-12
1.563180058e-11
-7.124132582e-12
5.890256454e-11
-1.617781535e-11
1.14446091e-10
-2.893231551e-11
1.829694333e-10
-4.536698594e-11
2.658859983e-10
-6.543131838e-11
3.655341465e-10
-8.904316107e-11
4.850700636e-10
-1.16080125e-10
6.281263171e-10
-1.463665075e-10
7.984184359e-10
-1.796553004e-10
9.994888855e-10
-2.156071185e-10
1.234651331e-09
-2.537712111e-10
1.507057551e-09
-2.935721774e-10
1.819780915e-09
-3.343022738e-10
2.175867715e-09
-3.751171952e-10
2.578357904e-09
-4.150338528e-10
3.030290984e-09
-4.529290217e-10
3.534707028e-09
-4.875388471e-10
4.094647511e-09
-5.174589123e-10
4.713157262e-09
-5.411448261e-10
5.39328749e-09
-5.569136531e-10
6.138100932e-09
-5.62945369e-10
6.950677783e-09
-5.572856816e-10
7.8341246e-09
-5.378487258e-10
8.791588782e-09
-5.024212067e-10
9.826297061e-09
-4.486715504e-10
1.094171684e-08
-3.741729977e-10
1.214235341e-08
-2.764721936e-10
1.343787533e-08
-1.531329144e-10
1.486436031e-08
1.659519316e-08
-1.839554337e-12
1.747135491e-11
-7.434686425e-12
6.449769663e-11
-1.681718774e-11
1.238285923e-10
-2.997166654e-11
1.961239121e-10
-4.685156839e-11
2.827659001e-10
-6.738784324e-11
3.860704214e-10
-9.148436035e-11
5.091665807e-10
-1.190053277e-10
6.556472845e-10
-1.497597193e-10
8.291728275e-10
-1.834834922e-10
1.033212658e-09
-2.198203549e-10
1.270988194e-09
-2.583045303e-10
1.545541726e-09
-2.9834843e-10
1.859824815e-09
-3.392352452e-10
2.21675453e-09
-3.801148349e-10
2.619237494e-09
-4.20001498e-10
3.070177647e-09
-4.577725839e-10
3.572478114e-09
-4.921680224e-10
4.129042949e-09
-5.217902285e-10
4.742779468e-09
-5.451048348e-10
5.416602096e-09
-5.604414526e-10
6.153437549e-09
-5.659956535e-10
6.956231984e-09
-5.598303541e-10
7.827959301e-09
-5.398791715e-10
8.771637599e-09
-5.039498946e-10
9.790367784e-09
-4.49732802e-10
1.088749975e-08
-3.748264112e-10
1.206744702e-08
-2.768087262e-10
1.333985765e-08
-1.532726226e-10
1.47408242e-08
1.644192054e-08
-1.927296816e-12
1.939865173e-11
-7.751395638e-12
7.032179544e-11
-1.746777821e-11
1.335449749e-10
-3.102754926e-11
2.096836831e-10
-4.835739702e-11
3.000957479e-10
-6.936876532e-11
4.070817897e-10
-9.395081294e-11
5.337486283e-10
-1.219543185e-10
6.8365079e-10
-1.531736501e-10
8.60392159e-10
-1.873287213e-10
1.06736773e-09
-2.240472464e-10
1.307706719e-09
-2.628490724e-10
1.584343552e-09
-3.031347793e-10
1.900110522e-09
-3.441786755e-10
2.257798426e-09
-3.851248178e-10
2.660183636e-09
-4.249847224e-10
3.110037551e-09
-4.626362162e-10
3.610129608e-09
-4.968226546e-10
4.163229387e-09
-5.261529439e-10
4.772109758e-09
-5.491020635e-10
5.439551216e-09
-5.640119615e-10
6.168347447e-09
-5.690925105e-10
6.961312533e-09
-5.624238831e-10
7.821290674e-09
-5.419581633e-10
8.751171879e-09
-5.055234939e-10
9.753933115e-09
-4.508322725e-10
1.083280853e-08
-3.755086173e-10
1.199212336e-08
-2.771638719e-10
1.32415129e-08
-1.534207698e-10
1.46170811e-08
1.628849977e-08
-2.017098103e-12
2.141574983e-11
-8.074085321e-12
7.637878266e-11
-1.812897716e-11
1.435998667e-10
-3.209877827e-11
2.236534843e-10
-4.988286291e-11
3.178798325e-10
-7.137243559e-11
4.285713623e-10
-9.644133921e-11
5.588175319e-10
-1.249267865e-10
7.121362374e-10
-1.566089479e-10
8.920743204e-10
-1.911925011e-10
1.101951283e-09
-2.282899376e-10
1.344804155e-09
-2.67407281e-10
1.623460896e-09
-3.079336518e-10
1.940636893e-09
-3.491346375e-10
2.298999412e-09
-3.901485582e-10
2.701197557e-09
-4.299841723e-10
3.149873165e-09
-4.67519428e-10
3.647664864e-09
-5.015009833e-10
4.197210943e-09
-5.305438838e-10
4.801152658e-09
-5.531320338e-10
5.462139366e-09
-5.676188526e-10
6.182834266e-09
-5.722285535e-10
6.965922234e-09
-5.650575236e-10
7.814119644e-09
-5.440761486e-10
8.730190504e-09
-5.071323446e-10
9.716989311e-09
-4.519610528e-10
1.077763723e-08
-3.762132646e-10
1.191637558e-08
-2.775336649e-10
1.31428333e-08
-1.535748327e-10
1.449312227e-08
1.613492494e-08
-2.108954132e-12
2.352470395e-11
-8.402627067e-12
8.267245559e-11
-1.880034549e-11
1.539975851e-10
-3.318449325e-11
2.38037632e-10
-5.142673223e-11
3.361220715e-10
-7.339752716e-11
4.505421573e-10
-9.895489668e-11
5.843749014e-10
-1.279222757e-10
7.411036164e-10
-1.600659097e-10
9.242179544e-10
-1.950758306e-10
1.136961204e-09
-2.325499201e-10
1.382278245e-09
-2.71980921e-10
1.662891896e-09
-3.127468148e-10
1.981402786e-09
-3.541047118e-10
2.340357309e-09
-3.951871804e-10
2.742280025e-09
-4.350001367e-10
3.189686122e-09
-4.724217408e-10
3.685086468e-09
-5.062013899e-10
4.230990592e-09
-5.349601617e-10
4.82991143e-09
-5.571904675e-10
5.484369672e-09
-5.712569859e-10
6.196900785e-09
-5.753974627e-10
6.970062711e-09
-5.677241343e-10
7.806446315e-09
-5.462254961e-10
8.708691866e-09
-5.08769153e-10
9.679532968e-09
-4.531126109e-10
1.072198069e-08
-3.769344348e-10
1.18401974e-08
-2.779145041e-10
1.304381337e-08
-1.537335718e-10
1.436894134e-08
1.598119137e-08
-2.202839431e-12
2.572754338e-11
-8.736871003e-12
8.920648715e-11
-1.948148623e-11
1.647422004e-10
-3.428397663e-11
2.528401224e-10
-5.298800161e-11
3.548260965e-10
-7.544292693e-11
4.729970826e-10
-1.014905289e-10
6.104225034e-10
-1.309402548e-10
7.705533422e-10
-1.635445746e-10
9.568222742e-10
-1.989792726e-10
1.172395902e-09
-2.36828191e-10
1.420127163e-09
-2.765712093e-10
1.702634915e-09
-3.175755212e-10
2.022407098e-09
-3.590898551e-10
2.381871643e-09
-4.002411769e-10
2.783431347e-09
-4.400326051e-10
3.22947755e-09
-4.77342116e-10
3.722395979e-09
-5.109221648e-10
4.264570641e-09
-5.393990576e-10
4.858388323e-09
-5.612735964e-10
5.506244211e-09
-5.749213102e-10
6.210548498e-09
-5.785934148e-10
6.973734815e-09
-5.704175427e-10
7.798270443e-09
-5.483994597e-10
8.686673783e-09
-5.104274751e-10
9.641560983e-09
-4.542814196e-10
1.066583464e-08
-3.776684945e-10
1.176358447e-08
-2.783040868e-10
1.294444897e-08
-1.53896894e-10
1.424453414e-08
1.582729447e-08
-2.298708902e-12
2.802625228e-11
-9.076648594e-12
9.598442684e-11
-2.017204707e-11
1.758375988e-10
-3.539661531e-11
2.680646907e-10
-5.456582264e-11
3.739953038e-10
-7.750767103e-11
4.959389309e-10
-1.040473697e-10
6.369622021e-10
-1.339801574e-10
8.004861298e-10
-1.670447739e-10
9.898868908e-10
-2.029031218e-10
1.208254249e-09
-2.411253824e-10
1.458349424e-09
-2.811789896e-10
1.742688522e-09
-3.224205862e-10
2.063648695e-09
-3.64090806e-10
2.423541862e-09
-4.053110229e-10
2.824651564e-09
-4.45081452e-10
3.269247979e-09
-4.822799511e-10
3.759594478e-09
-5.156615493e-10
4.297952239e-09
-5.438581086e-10
4.886584882e-09
-5.653782454e-10
5.527764347e-09
-5.786080793e-10
6.223778332e-09
-5.818116341e-10
6.97693837e-09
-5.731320175e-10
7.789590827e-09
-5.505928792e-10
8.664134645e-09
-5.12101941e-10
9.603070045e-09
-4.554632474e-10
1.060919594e-08
-3.784121555e-10
1.168653338e-08
-2.787004132e-10
1.284473722e-08
-1.540631634e-10
1.411989689e-08
1.567323131e-08
-2.396508146e-12
3.042276042e-11
-9.421780598e-12
1.030096993e-10
-2.08716544e-11
1.872874726e-10
-3.65218184e-11
2.837148546e-10
-5.61594162e-11
3.936329016e-10
-7.959088333e-11
5.193703981e-10
-1.066246052e-10
6.63995924e-10
-1.370413916e-10
8.309029162e-10
-1.705662802e-10
1.023411779e-09
-2.068474787e-10
1.244535448e-09
-2.454419246e-10
1.49694387e-09
-2.858048708e-10
1.783051468e-09
-3.272826926e-10
2.105126517e-09
-3.69108065e-10
2.465367235e-09
-4.103968584e-10
2.865940357e-09
-4.50146427e-10
3.308997548e-09
-4.872344969e-10
3.796682547e-09
-5.204184182e-10
4.33113616e-09
-5.483352002e-10
4.914501664e-09
-5.695013607e-10
5.548930508e-09
-5.823133775e-10
6.236590349e-09
-5.850480738e-10
6.979673066e-09
-5.758636738e-10
7.780406427e-09
-5.528012258e-10
8.641072197e-09
-5.137889695e-10
9.564057789e-09
-4.566543467e-10
1.055206132e-08
-3.7916297e-10
1.160904201e-08
-2.791024613e-10
1.274467671e-08
-1.542325495e-10
1.399502698e-08
1.551899876e-08
-2.496171311e-12
3.291893173e-11
-9.772058542e-12
1.102855865e-10
-2.157994214e-11
1.990953562e-10
-3.765907743e-11
2.997939899e-10
-5.776811485e-11
4.13741939e-10
-8.169181707e-11
5.432941003e-10
-1.092215052e-10
6.915256122e-10
-1.401234125e-10
8.618048235e-10
-1.741088108e-10
1.057397178e-09
-2.108124152e-10
1.281239052e-09
-2.497781056e-10
1.53590956e-09
-2.904493333e-10
1.823722696e-09
-3.321624443e-10
2.146839628e-09
-3.741421608e-10
2.507346951e-09
-4.154990046e-10
2.907297201e-09
-4.552274703e-10
3.348726013e-09
-4.922049575e-10
3.833660035e-09
-5.251913961e-10
4.364122599e-09
-5.528285965e-10
4.942138864e-09
-5.736408052e-10
5.569742717e-09
-5.860345075e-10
6.248984051e-09
-5.882992968e-10
6.981937856e-09
-5.786085508e-10
7.770715681e-09
-5.550209183e-10
8.617484564e-09
-5.154848934e-10
9.524521764e-09
-4.578524229e-10
1.049442885e-08
-3.799190285e-10
1.153110861e-08
-2.795087929e-10
1.264426648e-08
-1.544041405e-10
1.386992233e-08
1.536459462e-08
-2.597621911e-12
3.551655364e-11
-1.012728216e-11
1.178152468e-10
-2.229656451e-11
2.112646386e-10
-3.880787271e-11
3.163052981e-10
-5.939129318e-11
4.343253595e-10
-8.380979889e-11
5.67712606e-10
-1.118374695e-10
7.195532827e-10
-1.43225745e-10
8.931930991e-10
-1.776721386e-10
1.091843571e-09
-2.147979406e-10
1.318364854e-09
-2.541342326e-10
1.575245852e-09
-2.951128646e-10
1.864701328e-09
-3.370602512e-10
2.188787014e-09
-3.791935158e-10
2.549480216e-09
-4.206177747e-10
2.94872146e-09
-4.603246118e-10
3.388432851e-09
-4.971912305e-10
3.870526653e-09
-5.299796633e-10
4.396911032e-09
-5.573369489e-10
4.96949615e-09
-5.777945653e-10
5.590200333e-09
-5.897691327e-10
6.260958619e-09
-5.915629306e-10
6.983731654e-09
-5.813640793e-10
7.760516829e-09
-5.572491826e-10
8.593369667e-09
-5.171871271e-10
9.484459709e-09
-4.590550771e-10
1.04362968e-08
-3.806790199e-10
1.145273255e-08
-2.799186162e-10
1.254350607e-08
-1.545780719e-10
1.374458179e-08
1.521001655e-08
-2.700786985e-12
3.821734062e-11
-1.04872435e-11
1.256017033e-10
-2.302117165e-11
2.237985667e-10
-3.996777628e-11
3.332519027e-10
-6.102843939e-11
4.553860226e-10
-8.594427522e-11
5.926284418e-10
-1.144719888e-10
7.480809963e-10
-1.463480601e-10
9.250691704e-10
-1.812561274e-10
1.126751638e-09
-2.188041863e-10
1.355912913e-09
-2.585106643e-10
1.61495233e-09
-2.997959512e-10
1.905986615e-09
-3.419768357e-10
2.230967899e-09
-3.842627803e-10
2.59176616e-09
-4.257536028e-10
2.990212282e-09
-4.654381311e-10
3.428117379e-09
-5.021931215e-10
3.907281644e-09
-5.347830362e-10
4.429500946e-09
-5.618594057e-10
4.996572519e-09
-5.819613505e-10
5.610302278e-09
-5.935155872e-10
6.272512855e-09
-5.948365367e-10
6.985052603e-09
-5.841277886e-10
7.749808081e-09
-5.594835941e-10
8.568725473e-09
-5.18894088e-10
9.443870202e-09
-4.602607513e-10
1.037766346e-08
-3.814415586e-10
1.137391336e-08
-2.803317518e-10
1.244239627e-08
-1.547541491e-10
1.361900418e-08
1.50552624e-08
-2.8055913e-12
4.102293192e-11
-1.085173587e-11
1.336478478e-10
-2.375346789e-11
2.367002987e-10
-4.113838148e-11
3.506368163e-10
-6.267912264e-11
4.769267637e-10
-8.809484723e-11
6.180441664e-10
-1.171247167e-10
7.771108657e-10
-1.494901538e-10
9.574346076e-10
-1.848608289e-10
1.162122314e-09
-2.228314417e-10
1.393883526e-09
-2.629079192e-10
1.655028808e-09
-3.044993843e-10
1.94757808e-09
-3.469130109e-10
2.273381525e-09
-3.893508178e-10
2.634203967e-09
-4.309073932e-10
3.031768858e-09
-4.705686428e-10
3.467778628e-09
-5.072111042e-10
3.943924105e-09
-5.396012966e-10
4.461891139e-09
-5.663956301e-10
5.023366853e-09
-5.861405822e-10
5.63004723e-09
-5.972726257e-10
6.283644899e-09
-5.981190453e-10
6.985899023e-09
-5.868984344e-10
7.73858747e-09
-5.617228593e-10
8.543549898e-09
-5.206037016e-10
9.402751045e-09
-4.614686575e-10
1.031852842e-08
-3.822062594e-10
1.129465096e-08
-2.807474405e-10
1.234093745e-08
-1.54931824e-10
1.349318857e-08
1.490033057e-08
-2.911959859e-12
4.393489177e-11
-1.122058747e-11
1.419564754e-10
-2.449316628e-11
2.499728775e-10
-4.231939161e-11
3.684630417e-10
-6.43430287e-11
4.989504008e-10
-9.026122063e-11
6.439623583e-10
-1.197955108e-10
8.066451559e-10
-1.526520406e-10
9.902911373e-10
-1.884864703e-10
1.197956743e-09
-2.26880207e-10
1.432277263e-09
-2.673267539e-10
1.695475354e-09
-3.092240479e-10
1.989475374e-09
-3.518699344e-10
2.316027412e-09
-3.944587932e-10
2.676792826e-09
-4.360801907e-10
3.073390255e-09
-4.757171924e-10
3.50741563e-09
-5.122459142e-10
3.980452827e-09
-5.444349766e-10
4.494080201e-09
-5.709458263e-10
5.049877703e-09
-5.903319269e-10
5.64943333e-09
-6.010399669e-10
6.294352939e-09
-6.014095767e-10
6.986268632e-09
-5.896748242e-10
7.726852718e-09
-5.639660064e-10
8.51784108e-09
-5.223157492e-10
9.361100788e-09
-4.626776751e-10
1.025889035e-08
-3.829725905e-10
1.121494588e-08
-2.811655971e-10
1.223913046e-08
-1.551114411e-10
1.336713441e-08
1.474521913e-08
-3.019825516e-12
4.695471729e-11
-1.159362353e-11
1.505302735e-10
-2.524005636e-11
2.636193104e-10
-4.351055605e-11
3.867335413e-10
-6.601996335e-11
5.214598081e-10
-9.244331878e-11
6.703857138e-10
-1.224844136e-10
8.366862507e-10
-1.558339812e-10
1.023640705e-09
-1.921335812e-10
1.234256343e-09
-2.309512926e-10
1.471094974e-09
-2.717682708e-10
1.736292333e-09
-3.139714147e-10
2.031678518e-09
-3.568490331e-10
2.35890503e-09
-3.995884339e-10
2.719532227e-09
-4.41273763e-10
3.115075584e-09
-4.80885353e-10
3.54702722e-09
-5.172989472e-10
4.016866421e-09
-5.49285543e-10
4.526066797e-09
-5.755108645e-10
5.076103024e-09
-5.945361538e-10
5.66845862e-09
-6.048177713e-10
6.304634556e-09
-6.047082897e-10
6.986159151e-09
-5.92456967e-10
7.714601395e-09
-5.662122947e-10
8.491596408e-09
-5.240294416e-10
9.318917934e-09
-4.638878157e-10
1.019874872e-08
-3.837403737e-10
1.113479844e-08
-2.815860334e-10
1.213697612e-08
-1.552929854e-10
1.324084136e-08
1.458992615e-08
-3.129134291e-12
5.008385158e-11
-1.197072283e-11
1.59371862e-10
-2.599398366e-11
2.776425712e-10
-4.471177403e-11
4.054513317e-10
-6.770988899e-11
5.444579231e-10
-9.464125913e-11
6.973170839e-10
-1.251917263e-10
8.672367179e-10
-1.590365613e-10
1.05748554e-09
-1.958030279e-10
1.27102281e-09
-2.350459046e-10
1.510337851e-09
-2.762339969e-10
1.777480425e-09
-3.187431534e-10
2.074187674e-09
-3.618524786e-10
2.402014355e-09
-4.047417722e-10
2.76242152e-09
-4.464902179e-10
3.15682403e-09
-4.860753343e-10
3.586612336e-09
-5.223724264e-10
4.053163513e-09
-5.541545218e-10
4.557848892e-09
-5.800923229e-10
5.102040825e-09
-5.987543156e-10
5.687120613e-09
-6.086070278e-10
6.314487268e-09
-6.080155522e-10
6.985567675e-09
-5.952448852e-10
7.701830728e-09
-5.684623916e-10
8.464813914e-09
-5.25744819e-10
9.276200362e-09
-4.650990188e-10
1.013810292e-08
-3.84509575e-10
1.105420899e-08
-2.82009308e-10
1.203447585e-08
-1.554761849e-10
1.311430824e-08
1.443444996e-08
-3.23982736e-12
5.332367893e-11
-1.235179165e-11
1.684838263e-10
-2.675484695e-11
2.920456265e-10
-4.592301979e-11
4.246195045e-10
-6.941297358e-11
5.679478769e-10
-9.685536491e-11
7.247594752e-10
-1.27918075e-10
8.98299428e-10
-1.622606782e-10
1.091828143e-09
-1.994960761e-10
1.308258208e-09
-2.391656871e-10
1.550007462e-09
-2.80725937e-10
1.819040675e-09
-3.235417308e-10
2.117003468e-09
-3.668828347e-10
2.445355459e-09
-4.099218185e-10
2.805460504e-09
-4.517325852e-10
3.198634797e-09
-4.912899371e-10
3.626169688e-09
-5.274689035e-10
4.08934248e-09
-5.590445692e-10
4.589424558e-09
-5.846925317e-10
5.127688788e-09
-6.029884695e-10
5.70541655e-09
-6.124091933e-10
6.323907992e-09
-6.113327749e-10
6.984491257e-09
-5.980398961e-10
7.688537849e-09
-5.707167379e-10
8.437490756e-09
-5.274626975e-10
9.232946321e-09
-4.663117839e-10
1.007695201e-08
-3.852809428e-10
1.097317815e-08
-2.824347224e-10
1.193162963e-08
-1.556609747e-10
1.298753449e-08
1.427878899e-08
-3.351876602e-12
5.667555553e-11
-1.273676521e-11
1.778687149e-10
-2.752267276e-11
3.06831534e-10
-4.71444597e-11
4.442412915e-10
-7.112954169e-11
5.919329589e-10
-9.908629484e-11
7.527162284e-10
-1.306644243e-10
9.298775574e-10
-1.655076723e-10
1.126671391e-09
-2.032145204e-10
1.345965056e-09
-2.433128475e-10
1.590105789e-09
-2.852467509e-10
1.860974578e-09
-3.283701109e-10
2.160126828e-09
-3.719434665e-10
2.488928815e-09
-4.151320302e-10
2.848649068e-09
-4.570046592e-10
3.240507426e-09
-4.965332059e-10
3.665698235e-09
-5.325923397e-10
4.125401613e-09
-5.639595274e-10
4.620791746e-09
-5.893147856e-10
5.153044046e-09
-6.072416658e-10
5.723343431e-09
-6.162269729e-10
6.332893299e-09
-6.146619995e-10
6.982926284e-09
-6.008433092e-10
7.674719159e-09
-5.729764585e-10
8.409623905e-09
-5.291838744e-10
9.189153737e-09
-4.67526533e-10
1.001529466e-08
-3.860543521e-10
1.089170597e-08
-2.828633572e-10
1.182843863e-08
-1.558482782e-10
1.286051941e-08
1.412294071e-08
-3.465259665e-12
6.01408152e-11
-1.312565471e-11
1.875291099e-10
-2.829754659e-11
3.220034259e-10
-4.837638072e-11
4.643201256e-10
-7.286021857e-11
6.164167967e-10
-1.013349787e-10
7.811909885e-10
-1.334321099e-10
9.619746886e-10
-1.687794147e-10
1.162018696e-09
-2.06960688e-10
1.384146329e-09
-2.474902812e-10
1.630635382e-09
-2.897998111e-10
1.903284108e-09
-3.332322682e-10
2.203559285e-09
-3.770387088e-10
2.532735256e-09
-4.203770826e-10
2.891987442e-09
-4.623111263e-10
3.282441469e-09
-5.018098326e-10
3.705196941e-09
-5.377474963e-10
4.161339277e-09
-5.6890366e-10
4.65194791e-09
-5.939633518e-10
5.178103738e-09
-6.115176147e-10
5.740897693e-09
-6.200637498e-10
6.341439434e-09
-6.180060439e-10
6.980868578e-09
-6.036577688e-10
7.660370884e-09
-5.75243702e-10
8.381209838e-09
-5.3090951e-10
9.144819545e-09
-4.687448059e-10
9.95312996e-09
-3.868310146e-10
1.080979218e-08
-2.832954968e-10
1.172490312e-08
-1.560373967e-10
1.273326131e-08
1.396690331e-08
-3.579965951e-12
6.372078115e-11
-1.351852109e-11
1.974676651e-10
-2.907972723e-11
3.37564632e-10
-4.961931966e-11
4.84859718e-10
-7.460585826e-11
6.414033353e-10
-1.036027515e-10
8.101878818e-10
-1.362230365e-10
9.945949736e-10
-1.720783091e-10
1.197873969e-09
-2.107376532e-10
1.422805673e-09
-2.517016808e-10
1.67159941e-09
-2.943895619e-10
1.945971989e-09
-3.381330028e-10
2.247302726e-09
-3.821739304e-10
2.576776183e-09
-4.256627583e-10
2.93547627e-09
-4.676580649e-10
3.324436776e-09
-5.071259275e-10
3.744664804e-09
-5.429403219e-10
4.197153671e-09
-5.738828212e-10
4.682890409e-09
-5.98643639e-10
5.202864555e-09
-6.158212778e-10
5.758075332e-09
-6.239237588e-10
6.349541915e-09
-6.213689519e-10
6.978313771e-09
-6.064865047e-10
7.645488437e-09
-5.775210193e-10
8.352244353e-09
-5.326421831e-10
9.099940709e-09
-4.699677498e-10
9.890455527e-09
-3.876118248e-10
1.072743625e-08
-2.837314532e-10
1.162102274e-08
-1.562286588e-10
1.260575852e-08
1.381067465e-08
-3.696011529e-12
6.741679267e-11
-1.391548579e-11
2.076871393e-10
-2.986955359e-11
3.535186998e-10
-5.087398196e-11
5.058641464e-10
-7.636770263e-11
6.66897056e-10
-1.058914182e-10
8.397115973e-10
-1.390395896e-10
1.027743145e-09
-1.754075184e-10
1.234241897e-09
-2.145492687e-10