/*--------------------------------*- C++ -*----------------------------------*\
  =========                 |
  \\      /  F ield         | OpenFOAM: The Open Source CFD Toolbox
   \\    /   O peration     | Website:  https://openfoam.org
    \\  /    A nd           | Version:  8
     \\/     M anipulation  |
\*---------------------------------------------------------------------------*/
FoamFile
{
    version     2.0;
    format      ascii;
    class       volScalarField;
    location    "901";
    object      T;
}
// * * * * * * * * * * * * * * * * * * * * * * * * * * * * * * * * * * * * * //

dimensions      [0 0 0 1 0 0 0];

internalField   nonuniform List<scalar> 
6300
(
481.3953367
473.2365147
469.3033273
467.3251188
466.3960644
466.0201834
465.8951356
465.8618059
465.8548468
465.8537964
465.8537659
465.8538584
465.8539478
465.8540222
465.8540828
465.8541319
465.8541714
465.8542029
465.8542277
465.854247
465.8542616
465.8542722
465.8542795
465.8542839
465.8542861
465.8542885
465.8543054
465.8544806
465.8587189
466.1225445
487.096754
478.725
472.9069457
469.221675
467.2139274
466.3088365
465.9793121
465.8838596
465.8621131
465.8583307
465.8579364
465.8580226
465.8581427
465.8582454
465.8583287
465.858395
465.8584472
465.8584875
465.8585177
465.8585397
465.8585547
465.8585639
465.8585682
465.8585684
465.858566
465.8585671
465.8586108
465.8591534
465.8714299
466.3968778
488.7636074
481.1682929
475.0299818
470.6287014
467.9525648
466.6175791
466.0830238
465.9135185
465.8713346
465.8632328
465.86216
465.8621925
465.8623373
465.8624673
465.862573
465.8626568
465.862722
465.8627716
465.8628081
465.8628336
465.86285
465.8628587
465.862861
465.8628582
465.8628528
465.8628561
465.8629484
465.8641358
465.8881158
466.6718355
489.3990369
482.3960742
476.3173727
471.6330186
468.5637951
466.9100592
466.1939898
465.9484313
465.8823457
465.8685562
465.8664696
465.866388
465.866547
465.866701
465.8668267
465.866926
465.8670028
465.8670606
465.8671024
465.8671308
465.867148
465.8671558
465.8671559
465.86715
465.867142
465.8671509
465.8673247
465.8695146
465.9087691
466.9473892
489.7037347
483.085265
477.134741
472.3495819
469.0520842
467.1706666
466.3036617
465.9861985
465.8947761
465.8742872
465.8708727
465.870611
465.8707721
465.8709464
465.8710898
465.8712027
465.8712894
465.871354
465.8713999
465.8714302
465.8714475
465.8714539
465.8714514
465.8714422
465.8714323
465.8714523
465.8717544
465.875384
465.9334097
467.223519
489.8747115
483.5066465
477.6765344
472.8665855
469.4367728
467.3951779
466.4069079
466.0248163
465.9081922
465.880379
465.8753706
465.8748627
465.8750128
465.8752036
465.8753623
465.8754868
465.8755818
465.8756516
465.8757005
465.8757317
465.8757483
465.8757526
465.8757471
465.8757346
465.8757238
465.8757631
465.8762569
465.88184
465.9620581
467.5002094
489.9804851
483.7803547
478.0482872
473.2445826
469.738462
467.5848716
466.5011039
466.0627975
465.9221752
465.886766
465.8799598
465.8791439
465.879269
465.8794724
465.8796442
465.8797784
465.8798798
465.8799536
465.8800042
465.8800353
465.8800503
465.880052
465.880043
465.8800273
465.8800173
465.8800872
465.8808545
465.8889784
465.9947345
467.7774461
490.0498803
483.9654717
478.3098987
473.5241868
469.9749085
467.7433028
466.5852652
466.0991387
465.9363625
465.8933752
465.8846331
465.8834547
465.8835411
465.883753
465.8839354
465.8840773
465.8841836
465.8842599
465.8843109
465.884341
465.8843536
465.884352
465.8843393
465.8843205
465.8843137
465.8844297
465.8855727
465.8968957
466.0314595
468.055216
490.0969655
484.0937719
478.4970278
473.7327344
470.1602911
467.8746592
466.6593879
466.1332275
465.9504637
465.9001346
465.8893806
465.887795
465.8878291
465.8880453
465.888236
465.8883838
465.8884933
465.8885706
465.8886209
465.8886488
465.8886583
465.8886527
465.8886359
465.8886144
465.8886141
465.8887967
465.8904401
465.9056888
466.0722539
468.3335062
490.129405
484.1836649
478.6318882
473.8888981
470.3055908
467.9830012
466.7240041
466.1647426
465.9642599
465.9069784
465.8941913
465.8921639
465.8921334
465.8923496
465.8925462
465.8926979
465.8928089
465.8928857
465.892934
465.8929588
465.8929642
465.8929542
465.8929329
465.8929092
465.89292
465.8931954
465.8954883
465.9154553
466.1171385
468.6123039
490.1517292
484.2464893
478.7289016
474.0056831
470.4192275
468.0719616
466.7799036
466.1935667
465.9775964
465.9138501
465.8990539
465.8965605
465.896454
465.896666
465.8968661
465.8970196
465.8971305
465.8972054
465.8972505
465.897271
465.8972716
465.8972563
465.8972304
465.8972053
465.8972333
465.8976345
465.9007519
465.9262928
466.1661339
468.8915962
490.1667891
484.2895884
478.7977803
474.0923376
470.5076574
468.1446648
466.8279694
466.2197183
465.9903717
465.9207027
465.9039574
465.9009837
465.9007912
465.9009946
465.9011957
465.9013493
465.9014583
465.9015298
465.9015703
465.9015855
465.9015803
465.9015592
465.9015283
465.9015033
465.9015563
465.9021243
465.9062687
465.9382998
466.2192607
469.1713699
490.1764701
484.3179222
478.8452806
474.1555752
470.575859
468.2037453
466.8690844
466.243302
466.0025267
465.9274996
465.908892
465.905432
465.9051452
465.9053359
465.9055354
465.9056869
465.9057922
465.9058588
465.9058935
465.9059023
465.9058902
465.9058626
465.9058267
465.9058035
465.9058919
465.9066765
465.9120795
465.9515751
466.2765395
469.4516112
490.1820708
484.3349613
478.8762393
474.2003671
470.6277019
468.2514034
466.9040837
466.2644731
466.0140346
465.934213
465.9138487
465.9099043
465.909516
465.90969
465.9098853
465.9100327
465.9101326
465.9101926
465.9102201
465.9102212
465.9102014
465.9101666
465.9101257
465.9101067
465.9102435
465.9113047
465.9182283
465.966218
466.337991
469.7323061
490.1845173
484.343211
478.8942084
474.2304629
470.6662235
468.2894698
466.9337318
466.283413
466.0248925
465.9408232
465.91882
465.9143992
465.913904
465.9140572
465.9142457
465.9143867
465.9144793
465.9145312
465.91455
465.9145422
465.9145137
465.914471
465.9144253
465.914414
465.9146155
465.9160241
465.9247622
465.9823284
466.4036357
470.0134396
490.1844896
484.3445276
478.9018555
474.2487403
470.6938319
468.3194681
466.9587156
466.3003137
466.0351148
465.9473173
465.9237999
465.9189155
465.9183091
465.9184377
465.9186166
465.9187491
465.9188324
465.9188745
465.9188831
465.9188652
465.918827
465.9187758
465.9187257
465.9187264
465.9190126
465.9208521
465.9317313
466.0000066
466.473494
470.2949965
490.1825001
484.3403194
478.9012256
474.2574426
470.7124551
468.3426683
466.9796446
466.3153673
466.0447276
465.9536879
465.9287834
465.9234523
465.9227316
465.9228317
465.9229983
465.92312
465.9231921
465.9232226
465.9232195
465.9231901
465.923141
465.9230807
465.9230271
465.9230455
465.923441
465.9258082
465.9391889
466.0193534
466.5475865
470.5769604
490.1789437
484.3316771
478.8939143
474.2583441
470.7236521
468.3601329
466.9970564
466.3287591
466.0537649
465.9599323
465.9337669
465.9280086
465.9271716
465.9272397
465.927391
465.9274995
465.9275583
465.9275753
465.9275589
465.9275166
465.9274557
465.9273858
465.9273298
465.9273731
465.9279075
465.930914
465.9471916
466.0404703
466.6259336
470.8593144
490.1741307
484.3194609
478.8811871
474.2528667
470.7286953
468.3727541
467.0114224
466.3406648
466.0622651
465.966051
465.9387478
465.9325838
465.9316291
465.9316617
465.9317948
465.9318876
465.931931
465.9319327
465.9319013
465.9318447
465.9317707
465.9316908
465.9316342
465.9317115
465.9324201
465.9361934
465.955799
466.0634591
466.7085557
471.1420408
490.1683094
484.3043601
478.8640619
474.2421635
470.7286316
468.3812841
467.0231557
466.3512477
466.0702694
465.9720475
465.9437246
465.9371774
465.9361044
465.936098
465.9362099
465.9362845
465.9363102
465.9362945
465.9362464
465.936174
465.9360859
465.9359958
465.935941
465.9360636
465.9369881
465.9416728
465.9650737
466.0884222
466.795473
471.4251209
490.1616815
484.2869352
478.8433677
474.2271792
470.7243294
468.38636
467.0326174
466.3606584
466.0778195
465.9779274
465.9486964
465.941789
465.9405976
465.9405489
465.9406364
465.9406902
465.9406958
465.9406608
465.9405942
465.9405044
465.9404011
465.9403007
465.9402509
465.9404327
465.9416222
465.9473811
465.9750816
466.1154626
466.8867056
471.7085353
490.1544131
484.2676474
478.8197876
474.2086955
470.7165142
468.3885232
467.0401236
466.3690345
466.0849568
465.9836974
465.9536632
465.9464183
465.9451088
465.9450145
465.9450745
465.9451047
465.9450878
465.9450313
465.9449442
465.9448356
465.944716
465.9446057
465.944565
465.9448227
465.9463343
465.9533499
465.985892
466.1446838
466.9822736
471.9922633
490.1466424
484.2468803
478.7938896
474.187364
470.705796
468.3882361
467.0459505
466.3765013
466.0917216
465.9893655
465.9586253
465.9510654
465.9496383
465.949495
465.9495243
465.949528
465.9494862
465.9494058
465.9492963
465.9491672
465.9490303
465.9489107
465.9488847
465.9492385
465.951138
465.9596136
465.9975768
466.1761899
467.0821969
472.2762835
490.1384859
484.2249562
478.7661501
474.1637323
470.6926903
468.3858945
467.0503398
466.3831719
466.0981525
465.9949402
465.9635837
465.9557302
465.9541862
465.9539907
465.9539859
465.9539601
465.9538907
465.9537842
465.9536503
465.9534989
465.953344
465.9532162
465.9532116
465.9536855
465.9560488
465.9662093
466.0102117
466.2100854
467.186495
472.5605733
490.1300424
484.2021476
478.7369713
474.1382631
470.6776351
468.3818385
467.0535034
466.3891487
466.1042859
466.0004306
465.9685397
465.9604131
465.9587527
465.9585017
465.9584593
465.958401
465.9583012
465.9581662
465.9580057
465.9578305
465.9576568
465.9575224
465.9575478
465.9581702
465.9610839
465.9731773
466.0238751
466.2464755
467.2951876
472.8451093
490.1213962
484.1786863
478.7066946
474.111349
470.6610037
468.3763609
467.0556267
466.3945237
466.1101563
466.0058456
465.9734949
465.9651143
465.9633381
465.9630281
465.9629446
465.9628506
465.9627176
465.9625515
465.9623623
465.9621617
465.9619686
465.96183
465.9618957
465.9627001
465.9662622
465.9805609
466.0386489
466.285466
467.408294
473.1298666
490.1126198
484.1547709
478.6756112
474.0833249
470.6431155
468.3697143
467.0568721
466.3993795
466.1157954
466.0111943
465.9784511
465.9698341
465.9679426
465.9675701
465.9674418
465.9673087
465.9671396
465.9669398
465.9667197
465.966492
465.9662793
465.9661397
465.9662583
465.9672837
465.9716051
465.9884066
466.0546182
466.3271633
467.5258329
473.4148193
490.1037758
484.1305712
478.6439699
474.0544764
470.6242439
468.3621168
467.0573822
466.4037901
466.1212332
466.0164854
465.9834102
465.974573
465.9725663
465.9721279
465.9719509
465.9717753
465.971567
465.9713308
465.9710775
465.9708212
465.970589
465.9704525
465.9706393
465.9719308
465.977136
465.9967641
466.0718712
466.3716743
467.6478235
473.6999404
490.0949179
484.1062332
478.6119837
474.0250479
470.6046233
468.3537572
467.0572817
466.4078216
466.1264968
466.0217276
465.9883743
465.9793316
465.9772096
465.9767015
465.9764718
465.9762502
465.9759994
465.9757241
465.9754352
465.975149
465.9748977
465.9747697
465.9750429
465.9766525
465.9828808
466.0056868
466.0904995
466.4191066
467.7742841
473.9852015
490.0860928
484.0818821
478.579834
473.9952479
470.5844548
468.3447981
467.0566796
466.4115332
466.1316114
466.026929
465.9933456
465.9841103
465.9818726
465.9812909
465.9810046
465.9807331
465.9804367
465.9801192
465.9797926
465.979475
465.9792057
465.979093
465.979474
465.9814615
465.9888679
466.0152316
466.110598
466.4695686
467.9052329
474.270573
490.0773405
484.0576245
478.5476758
473.965254
470.5639098
468.3353797
467.0556713
466.4149773
466.1366
466.0320976
465.998326
465.9889098
465.9865555
465.9858963
465.9855491
465.9852239
465.9848783
465.9845158
465.984149
465.983799
465.9835133
465.9834242
465.9839385
465.9863719
465.9951283
466.0254589
466.1322649
466.5231691
468.0406877
474.556024
490.0686952
484.0335507
478.5156393
473.9352159
470.5431342
468.3256225
467.0543397
466.4182007
466.1414835
466.0372406
466.0033179
465.9937306
465.9912586
465.9905177
465.9901051
465.9897223
465.9893239
465.9889134
465.9885042
465.9881209
465.9878211
465.9877658
465.9884431
465.9913997
466.0016961
466.036433
466.1556019
466.5800179
468.1806661
474.8415221
490.0601858
484.0097363
478.4838332
473.9052591
470.5222508
468.315629
467.0527563
466.4212443
466.1462808
466.0423651
466.0083232
465.9985734
465.995982
465.995155
465.9946725
465.9942278
465.993773
465.9933113
465.9928575
465.9924404
465.9921299
465.9921207
465.9929955
465.9965626
466.0086082
466.0482223
466.1807141
466.6402254
468.3251853
475.1270335
490.0518359
483.9862424
478.4523459
473.875486
470.5013615
468.3054857
467.050983
466.4241442
466.151009
466.0474775
466.013344
466.0034386
466.0007258
465.9998081
465.999251
465.9987401
465.9982252
465.9977091
465.9972085
465.9967575
465.9964405
465.9964925
465.9976046
466.0018807
466.0159048
466.0608993
466.2077101
466.7039031
468.474262
475.4125231
490.0436646
483.9631169
478.4212466
473.8459783
470.4805489
468.2952642
467.0490719
466.4269318
466.1556833
466.0525837
466.0183821
466.008327
466.0054902
466.0044769
466.0038402
466.0032586
466.0026797
466.0021062
466.0015568
466.0010722
466.0007544
466.0008852
466.0022807
466.007376
466.0236296
466.0745405
466.2367022
466.771163
468.6279124
475.6979543
490.035686
483.9403946
478.3905857
473.8167971
470.4598774
468.2850225
467.0470666
466.429634
466.160317
466.0576891
466.0234396
466.0132389
466.0102752
466.0091613
466.0084398
466.007783
466.0071359
466.0065017
466.0059018
466.0053846
466.005073
466.0053037
466.0070352
466.0130729
466.0318298
466.089227
466.2678063
466.8421184
468.786153
475.9832889
490.0279093
483.9180965
478.3603949
473.7879836
470.4393935
468.2748052
467.0450023
466.4322733
466.1649219
466.0627987
466.0285178
466.0181749
466.0150807
466.0138608
466.0130493
466.0123123
466.0115931
466.0108951
466.0102431
466.009695
466.0093985
466.0097537
466.0118814
466.0189988
466.0405566
466.1050448
466.3011424
466.9168836
468.9489992
476.2684871
490.0203385
483.8962296
478.3306861
473.7595585
470.4191261
468.2646438
467.0429061
466.4348681
466.1695079
466.0679167
466.0336185
466.0231352
466.0199067
466.0185751
466.017668
466.016846
466.0160504
466.0152856
466.0145803
466.014004
466.0137333
466.0142419
466.0168341
466.0251836
466.0498651
466.1220843
466.3368341
466.9955741
469.1164662
476.5535077
490.0129715
483.8747849
478.3014504
473.7315207
470.3990856
468.2545564
467.040797
466.4374326
466.1740831
466.0730467
466.0387427
466.0281201
466.0247528
466.0233037
466.0222952
466.0213831
466.020507
466.0196723
466.018913
466.018312
466.0180804
466.0187759
466.02191
466.0316604
466.059815
466.1404414
466.3750096
467.0783066
469.2885691
476.8383077
490.0057999
483.8537359
478.272655
473.7038454
470.3792625
468.2445475
467.0386853
466.4399768
466.1786538
466.0781917
466.0438916
466.0331295
466.0296187
466.0280459
466.0269301
466.0259226
466.0249616
466.0240544
466.0232409
466.0226202
466.0224433
466.0233646
466.0271281
466.0384656
466.0704706
466.1602172
466.4158012
467.1651995
469.4653226
477.1228427
489.9988072
483.8330354
478.24424
473.676481
470.3596258
468.234606
467.0365727
466.4425059
466.1832243
466.0833539
466.0490657
466.0381635
466.0345037
466.0328007
466.0315714
466.0304632
466.0294132
466.0284308
466.0275635
466.0269296
466.0268263
466.0280183
466.0325096
466.0456394
466.0819012
466.1815184
466.4593461
467.2563727
469.6467408
477.4070665
489.9919674
483.8126112
478.2161134
473.6493441
470.3401188
468.224704
467.0344506
466.4450201
466.1877967
466.0885346
466.0542653
466.0432214
466.0394071
466.0375671
466.0362178
466.0350035
466.0338603
466.0328006
466.0318808
466.0312419
466.0312346
466.0327489
466.0380783
466.0532259
466.0941816
466.2044581
466.5057861
467.3519481
469.8328383
477.6909313
489.9852429
483.7923607
478.1881434
473.6223138
470.3206552
468.2147937
467.0322993
466.4475141
466.1923705
466.093734
466.0594901
466.0483025
466.0443274
466.0423434
466.0408678
466.0395418
466.0383014
466.0371626
466.0361927
466.035559
466.0356741
466.0375698
466.0438612
466.0612737
466.1073923
466.2291557
466.5552686
467.4520498
470.0236287
477.9743879
489.9785808
483.7721421
478.1601492
473.5952218
470.3011125
468.2048035
467.0300854
466.4499759
466.1969424
466.0989511
466.0647393
466.0534056
466.0492633
466.047128
466.0455192
466.0440761
466.0427347
466.0415156
466.0404991
466.0398835
466.0401521
466.0424965
466.0498881
466.0698361
466.1216204
466.2557376
466.6079465
467.5568042
470.219126
478.257385
489.9719084
483.7517638
478.1318862
473.5678406
470.2813225
468.1946326
467.0277596
466.4523857
466.2015056
466.1041834
466.0700111
466.0585287
466.0542125
466.0519183
466.0501697
466.0486041
466.0471582
466.0458584
466.0448003
466.0442183
466.0446769
466.047547
466.0561929
466.0789718
466.1369598
466.2843378
466.6639791
467.6663405
470.4193443
478.5398701
489.9651269
483.7309674
478.1030273
473.5398653
470.2610589
468.1841433
467.0252525
466.4547139
466.206049
466.1094262
466.0753026
466.0636692
466.0591722
466.0567115
466.0548163
466.0531228
466.0515695
466.0501895
466.0490968
466.0485675
466.0492585
466.0527417
466.0628135
466.0887458
466.153512
466.3150985
466.7235322
467.780791
470.6242973
478.821789
489.9581016
483.7094043
478.073133
473.5108883
470.240019
468.1731502
467.022469
466.456919
466.2105561
466.1146728
466.0806098
466.0688235
466.0641386
466.0615038
466.0594552
466.0576291
466.055966
466.0545076
466.0533894
466.0529357
466.0539084
466.0581041
466.0697925
466.0992293
466.1713871
466.348171
466.7867792
467.9002915
470.8339993
479.103086
489.9506464
483.6865999
478.0416103
473.4803622
470.2177974
468.1614052
467.0192811
466.458944
466.2150038
466.1199129
466.0859265
466.0739865
466.069107
466.0662904
466.0640821
466.062119
466.0603446
466.0588111
466.0576792
466.0573288
466.0586406
466.0636611
466.0771778
466.1105013
466.1907045
466.3837166
466.8539012
468.0249818
471.0484645
479.3837039
489.9425035
483.6619006
478.0076482
473.4475447
470.1938483
468.1485752
467.0155167
466.4607117
466.2193602
466.1251324
466.0912444
466.0791514
466.0740711
466.0710655
466.0686915
466.0665877
466.0647018
466.0630985
466.0619679
466.0617539
466.0634713
466.0694441
466.0850239
466.1226495
466.211594
466.4219075
466.9250889
468.1550061
471.2677074
479.6635839
489.9332978
483.6343795
477.970115
473.4114121
470.167427
468.1342099
467.0109445
466.4621182
466.2235817
466.1303118
466.0965521
466.0843092
466.0790228
466.0758216
466.0732768
466.0710298
466.0690337
466.0673683
466.0662581
466.0662199
466.0684199
466.0754891
466.0933922
466.1357711
466.2341975
466.4629285
467.0005428
468.290514
471.4917434
479.9426662
489.9224995
483.6027147
477.9274066
473.3705305
470.1375039
468.1176948
467.0052519
466.4630236
466.2276095
466.1354242
466.1018337
466.0894479
466.0839515
466.0805494
466.0778299
466.0754387
466.0733359
466.0716192
466.070553
466.0707377
466.0735095
466.081838
466.1023528
466.149975
466.2586708
466.5069787
467.0804757
468.4316617
471.7205888
480.2208895
489.9092298
483.5648647
477.8771361
473.3228216
470.1026202
468.098176
466.9980117
466.4632388
466.2313643
466.1404334
466.107068
466.0945514
466.0888437
466.085237
466.0823408
466.0798066
466.0776033
466.0758499
466.0748572
466.075321
466.0787677
466.0885399
466.111986
466.1653836
466.2851859
466.5542747
467.1651149
468.5786139
471.9542614
480.4981915
489.892308
483.517854
477.8157848
473.2652578
470.0606915
468.0744597
466.9886383
466.4625081
466.2347392
466.1452903
466.1122265
466.0995987
466.093682
466.08987
466.0867977
466.0841245
466.0818305
466.0800598
466.0791772
466.0799868
466.084228
466.0956529
466.1223849
466.182136
466.3139352
466.6050549
467.2547081
468.7315498
472.1927866
480.7745092
489.8690697
483.456226
477.7374996
473.1930921
470.0085926
468.0448208
466.9763108
466.4604812
466.2375892
466.1499284
466.1172704
466.1045618
466.098444
466.0944297
466.0911857
466.0883815
466.0860111
466.0842487
466.0835213
466.0847565
466.089931
466.1032461
466.1336583
466.2003929
466.3451372
466.6595863
467.3495293
468.8906664
472.4361929
481.049779
489.8367925
483.3724539
477.6336002
473.0992794
469.9417926
468.0068343
466.9599095
466.4566911
466.2397238
466.1542606
466.1221499
466.1094055
466.1031022
466.0988945
466.0954879
466.0925658
466.0901391
466.088418
466.0879018
466.0896581
466.0959282
466.1114044
466.1459377
466.2203446
466.3790485
466.7181811
467.4499025
469.0562118
472.6845532
481.323939
489.7842404
483.2476468
477.4866908
472.9713879
469.8529599
467.9568258
466.9378213
466.4504878
466.2408812
466.1581668
466.1267954
466.114081
466.1076187
466.1032343
466.0996814
466.0966611
466.0942062
466.0925695
466.0923341
466.0947265
466.1022829
466.1202317
466.1593816
466.2422183
466.4159715
466.7812031
467.5561992
469.2284569
472.937918
481.5969275
489.7051013
483.0600262
477.2729494
472.7920292
469.7321315
467.890015
466.9080376
466.4410911
466.240756
466.1615107
466.1311316
466.1185382
466.1119576
466.107423
466.1037482
466.1006579
466.0982122
466.0967151
466.0968471
466.1000156
466.1090846
466.1298678
466.1741982
466.2663093
466.4563009
466.8491404
467.668959
469.4079001
473.1965973
481.8686961
489.5354958
482.725423
476.9310052
472.5255493
469.5617232
467.7988272
466.8676114
466.4274059
466.2389193
466.1640916
466.1350393
466.1226932
466.1160545
466.1114106
466.1076505
466.1045304
466.1021448
466.1008593
466.1014681
466.1055837
466.1164352
466.1404739
466.1906253
466.2929463
466.5004569
466.9224736
467.7886297
469.5947771
473.4604502
482.1391883
489.2409543
482.1647455
476.396092
472.1359166
469.3257229
467.6771996
466.8144909
466.4087715
466.235151
466.1658292
466.1384895
466.1265405
466.1199184
466.1152159
466.1114164
466.1083163
466.1060542
466.1050702
466.106291
466.1115634
466.1245235
466.1523188
466.2090424
466.3226555
466.5491523
467.0021385
467.9163993
469.7905295
473.7309075
482.4084155
488.3772806
481.0414073
475.515033
471.5657507
469.0060874
467.5205598
466.7478059
466.385042
466.2293559
466.1666029
466.1413559
466.1299634
466.1234456
466.1187493
466.1149693
466.1119533
466.1098946
466.1093219
466.1113151
466.1179842
466.1334119
466.1654926
466.2295425
466.3554691
466.60222
467.0875114
468.0507764
469.9923598
474.0044068
482.6763454
488.8886238
481.8056046
476.2480393
472.1426109
469.3944816
467.7483891
466.8664301
466.4413512
466.254942
466.1788025
466.1482671
466.1348917
466.1275974
466.1225314
466.118518
466.1153214
466.1131102
466.1124069
466.1142931
466.1208895
466.1363057
466.168496
466.2329049
466.3597105
466.6084314
467.0980007
468.0705181
470.0325188
474.0923901
482.8861014
489.3134275
482.3337335
476.7552554
472.5676825
469.6996845
467.9379379
466.9702317
466.4929145
466.2793534
466.1908446
466.1552298
466.1398853
466.1318003
466.126354
466.1221016
466.1187219
466.116358
466.1155264
466.1173117
466.1238466
466.1392703
466.1716004
466.2364144
466.3641661
466.6149483
467.1089093
468.0908051
470.0733696
474.1812163
483.0858695
489.5782279
482.7415552
477.1378115
472.8896038
469.9386642
468.092649
467.0585813
466.5386314
466.30188
466.2023795
466.162087
466.1448682
466.1360079
466.1301812
466.1256882
466.1221245
466.119609
466.1186529
466.1203449
466.1268327
466.1422885
466.1747993
466.2400842
466.3688855
466.6218882
467.12048
468.1121104
470.1157884
474.2722071
483.2780177
489.7499349
483.0659188
477.4483624
473.150615
470.135512
468.2235359
467.135673
466.5798496
466.322892
466.2135017
466.1688713
466.1498625
466.1402408
466.1340323
466.1292956
466.125546
466.1228782
466.1217991
466.1234027
466.1298532
466.1453588
466.1780802
466.2438842
466.3738101
466.629147
467.1325387
468.1341549
470.1593411
474.3645751
483.4623216
489.8722114
483.3377304
477.717464
473.3750719
470.3051067
468.3379621
467.2045468
466.6176244
466.3426931
466.2242779
466.1755883
466.1548618
466.1444917
466.137901
466.1329184
466.1289811
466.1261604
466.1249593
466.1264781
466.1328988
466.1484681
466.1814233
466.2477843
466.3788946
466.6366577
467.144989
468.1568104
470.2038698
474.4580333
483.6391768
489.966486
483.5699358
477.9584252
473.5763133
470.4569211
468.4411937
467.2676262
466.6529045
466.361603
466.2348008
466.1822599
466.1598691
466.1487593
466.1417853
466.1365545
466.1324278
466.1294536
466.128131
466.1295674
466.1359639
466.1516069
466.1848135
466.2517598
466.3840993
466.6443581
467.157738
468.1799447
470.2491904
474.5522354
483.8088234
490.043823
483.7724717
478.1790607
473.7621859
470.5969234
468.5367647
467.3266343
466.6864019
466.3798742
466.2451463
466.1889037
466.1648855
466.1530406
466.1456815
466.1402004
466.135883
466.1327545
466.1313108
466.1326666
466.139043
466.1547677
466.1882388
466.2557924
466.389396
466.652206
467.1707248
468.2034799
470.295186
474.6469458
483.9715793
490.1098983
483.9517693
478.383645
473.9371939
470.7288777
468.6270671
467.3828077
466.718656
466.3977088
466.2553793
466.1955366
466.169913
466.1573338
466.1495871
466.1438538
466.1393443
466.1360608
466.1344962
466.1357729
466.1421325
466.1579448
466.1916911
466.2598693
466.3947654
466.6601809
467.1839635
468.2274025
470.3417463
474.7419075
484.1277556
490.1679151
484.1126081
478.574948
474.1040473
470.8551939
468.713721
467.4370228
466.7500654
466.4152619
466.2655514
466.2021724
466.1749534
466.1616376
466.1535001
466.1475125
466.1428097
466.1393709
466.1376855
466.1388841
466.1452295
466.1611345
466.1951648
466.2639825
466.4002165
466.6682953
467.1973827
468.2516305
470.3888363
474.8369986
484.2776694
490.2198155
484.2584807
478.7548462
474.2643873
470.9774212
468.7978305
467.4899038
466.7809247
466.4326527
466.2757039
466.2088228
466.1800087
466.165951
466.1574191
466.1511751
466.1462781
466.1426834
466.1408774
466.141999
466.1483325
466.1643346
466.1986606
466.2681439
466.4057323
466.6765067
467.2109614
468.2761421
470.4364231
474.9321184
484.4216291
490.2668821
484.3920314
478.9247398
474.4192456
471.096566
468.8801542
467.5418976
466.8114527
466.4499726
466.2858698
466.2154975
466.1850804
466.1702733
466.1613427
466.1548404
466.1497483
466.1459975
466.1440711
466.1451167
466.151441
466.1675485
466.2021797
466.2723383
466.4113011
466.6848045
467.2246881
468.3009261
470.4844838
475.0271743
484.5599316
490.3100147
484.5152841
479.0857301
474.5692921
471.2132852
468.9612171
467.5933271
466.8418126
466.4672923
466.2960755
466.2222047
466.1901705
466.1746043
466.1652702
466.1585077
466.1532196
466.1493125
466.1472661
466.1482376
466.1545565
466.170773
466.2057165
466.2765618
466.4169177
466.6931825
467.2385563
468.3259767
470.5329995
475.1220813
484.6928599
490.3498763
484.6298164
479.2387243
474.7149839
471.3280095
469.0413842
467.644427
466.8721277
466.4846672
466.3063423
466.2289514
466.1952803
466.1789438
466.169201
466.162176
466.156691
466.1526279
466.1504627
466.1513616
466.1576774
466.1740067
466.209269
466.2808117
466.4225788
466.7016369
467.2525629
468.3512915
470.5819527
475.2167618
484.8206818
490.386972
484.7368741
479.3844903
474.8566504
471.4410219
469.1209096
467.6953695
466.9024914
466.5021404
466.3166878
466.2357438
466.2004104
466.1832908
466.1731341
466.1658449
466.160163
466.1559441
466.1536606
466.1544881
466.160803
466.1772488
466.212836
466.2850863
466.4282822
466.7101655
467.2667062
468.376869
470.6313264
475.3111451
484.9436507
490.4216963
484.8374558
479.5236904
474.994544
471.5525079
469.1999696
467.7462807
466.9329741
466.5197362
466.3271175
466.2425913
466.205569
466.1876494
466.177071
466.1695148
466.1636354
466.1592607
466.1568595
466.1576167
466.1639326
466.1804985
466.2164165
466.2893844
466.4340264
466.7187668
467.2809855
468.402708
470.6811031
475.4051666
485.0620058
490.4543637
484.9323715
479.6569018
475.1288689
471.6625885
469.2786846
467.7972476
466.9635578
466.5374918
466.3376868
466.2495111
466.210759
466.1920196
466.1810114
466.1731854
466.1671077
466.1625774
466.160059
466.1607471
466.1670661
466.1837553
466.2200097
466.2937049
466.4398103
466.7274399
467.2954004
468.4288076
470.7312646
475.4987682
485.1759732
490.4852285
485.0222862
479.7846313
475.2597993
471.7713411
469.3571266
467.8482148
466.994361
466.5554788
466.3484001
466.256505
466.2159812
466.1964015
466.1849549
466.1768563
466.1705796
466.1658938
466.163259
466.1638791
466.170203
466.1870188
466.2236152
466.2980472
466.4456331
466.736184
467.3099508
468.4551663
470.7817924
475.5918967
485.2857661
490.5144995
485.1077519
479.9073261
475.3874886
471.8788137
469.4353363
467.8992099
467.0254671
466.5737045
466.3592613
466.2635751
466.2212363
466.2007951
466.1889016
466.1805273
466.1740509
466.1692098
466.1664591
466.1670123
466.1733431
466.1902887
466.2272325
466.3024108
466.4514942
466.7449988
467.3246367
468.4817825
470.8326675
475.6845045
485.3915862
490.54235
485.1892311
480.0253821
475.5120753
471.9850244
469.5131874
467.9504531
467.0568857
466.5921749
466.3702741
466.2707234
466.2265254
466.2052009
466.1928514
466.1841983
466.1775215
466.1725252
466.1696593
466.1701468
466.1764862
466.1935647
466.2308612
466.3067951
466.457393
466.7538839
467.3394583
468.5086543
470.8838707
475.7765484
485.493624
490.5689255
485.2671153
480.1391506
475.6336865
472.0899837
469.5907275
468.0019745
467.0886246
466.6108949
466.3814416
466.2779518
466.2318494
466.2096192
466.1968043
466.1878692
466.1809912
466.17584
466.1728595
466.1732822
466.1796321
466.1968466
466.2345011
466.3111998
466.4633293
466.7628393
467.3544155
468.5357795
470.9353827
475.8679899
485.5920599
490.5943491
485.3417384
480.2489448
475.7524412
472.1936999
469.668015
468.0537668
467.1206884
466.6298684
466.3927668
466.2852621
466.2372093
466.2140504
466.2007604
466.19154
466.18446
466.1791539
466.1760594
466.1764186
466.1827808
466.2001343
466.2381519
466.3156246
466.4693027
466.7718646
467.3695084
468.5631557
470.9871842
475.9587941
485.6870643
490.618726
485.4133878
480.3550442
475.8684519
472.2961801
469.7450847
468.1058218
467.1530791
466.6490985
466.4042522
466.2926563
466.2426062
466.218495
466.2047199
466.1952106
466.1879277
466.1824669
466.1792591
466.1795558
466.1859321
466.2034275
466.2418133
466.3200693
466.475313
466.7809601
467.3847373
468.5907802
471.0392558
476.0489304
485.7787986
490.642147
485.4823122
480.4576997
475.9818251
472.3974313
469.8219541
468.1581308