/*--------------------------------*- C++ -*----------------------------------*\
  =========                 |
  \\      /  F ield         | OpenFOAM: The Open Source CFD Toolbox
   \\    /   O peration     | Website:  https://openfoam.org
    \\  /    A nd           | Version:  8
     \\/     M anipulation  |
\*---------------------------------------------------------------------------*/
FoamFile
{
    version     2.0;
    format      ascii;
    class       volVectorField;
    location    "901";
    object      U;
}
// * * * * * * * * * * * * * * * * * * * * * * * * * * * * * * * * * * * * * //

dimensions      [0 1 -1 0 0 0 0];

internalField   nonuniform List<vector> 
6300
(
(-2.74013867e-05 -1.235278471e-05 5.65590248e-13)
(9.556799386e-05 -2.281125824e-05 3.279051712e-13)
(0.0003815636239 -2.587926184e-05 4.926513787e-13)
(0.000844801101 -2.597184087e-05 5.400236637e-13)
(0.001513878531 -2.554988344e-05 4.875092484e-13)
(0.002429003079 -2.526919906e-05 3.541650394e-13)
(0.003641363968 -2.515131371e-05 4.096098223e-13)
(0.005210623671 -2.491839685e-05 4.775530531e-13)
(0.007201966878 -2.428412362e-05 7.579539113e-13)
(0.009683916964 -2.306172038e-05 9.953445764e-13)
(0.01272708038 -2.114824768e-05 6.920641571e-13)
(0.01640347799 -1.849020973e-05 7.68763299e-13)
(0.02078615012 -1.506339893e-05 8.524979748e-13)
(0.02594888085 -1.086232828e-05 9.235729472e-13)
(0.03196598558 -5.8936195e-06 5.877836561e-13)
(0.03891214257 -1.717022021e-07 -8.467580448e-15)
(0.04686225868 6.283477089e-06 4.933273746e-13)
(0.05589136454 1.344654304e-05 1.224099507e-12)
(0.06607453104 2.128409775e-05 1.288692694e-12)
(0.07748680298 2.974822875e-05 1.348099598e-12)
(0.09020313895 3.876411971e-05 7.66892425e-13)
(0.1042983467 4.820789056e-05 -1.025323619e-13)
(0.1198469998 5.786867311e-05 9.663456308e-14)
(0.1369233469 6.738493238e-05 7.092083356e-13)
(0.1556013788 7.612350746e-05 1.448901617e-12)
(0.1759562147 8.291157689e-05 8.101617834e-13)
(0.1980739477 8.577136664e-05 7.936856868e-14)
(0.2221106017 8.278909129e-05 -8.358139894e-14)
(0.2486211266 7.188497457e-05 6.207352532e-24)
(0.2804640794 5.265073592e-06 2.946328943e-28)
(6.566059151e-06 2.111080784e-06 1.211736964e-12)
(0.0001833107493 2.26279449e-07 1.336542194e-12)
(0.0005241054173 1.986455815e-06 1.146443459e-12)
(0.001047922673 3.302439953e-06 1.112103782e-12)
(0.001785273765 3.84163104e-06 1.390156126e-12)
(0.002777842107 4.11658936e-06 1.667796625e-12)
(0.00407749781 4.806461685e-06 1.476364568e-12)
(0.005743601861 6.441112096e-06 1.11633665e-12)
(0.007840151254 9.194665262e-06 7.652655123e-13)
(0.01043383879 1.294996338e-05 1.445229145e-12)
(0.01359303389 1.747918928e-05 2.120660257e-12)
(0.01738727372 2.25576142e-05 1.557534495e-12)
(0.02188695866 2.799341803e-05 1.67897076e-12)
(0.02716312676 3.362473627e-05 1.805885198e-12)
(0.03328727195 3.931390509e-05 1.958497018e-12)
(0.0403311974 4.494458847e-05 1.784093364e-12)
(0.04836689956 5.042012417e-05 1.922091869e-12)
(0.05746647836 5.566138518e-05 2.412055582e-12)
(0.06770206866 6.060250068e-05 1.578298816e-12)
(0.07914578867 6.518318559e-05 4.684472983e-13)
(0.09186969671 6.933554273e-05 1.566679954e-12)
(0.1059457498 7.296327417e-05 2.367156579e-12)
(0.1214457585 7.591162517e-05 1.557082768e-12)
(0.138441365 7.792413171e-05 2.919149154e-13)
(0.1570042599 7.854180837e-05 8.099189149e-13)
(0.1772079477 7.687073413e-05 2.193779772e-12)
(0.1991385273 7.185046769e-05 1.883964497e-12)
(0.222954702 6.497082051e-05 -1.612813264e-13)
(0.2492136507 5.856262515e-05 -1.836481766e-13)
(0.2807661159 1.060579115e-05 0)
(2.903401304e-05 7.808173949e-06 2.321327655e-12)
(0.0002447576578 1.77544052e-05 2.618660755e-12)
(0.0006255070878 2.767317311e-05 2.419426453e-12)
(0.001192076937 3.356755705e-05 3.107427305e-12)
(0.001975560659 3.610976541e-05 2.846899109e-12)
(0.003018334284 3.687100184e-05 2.393814563e-12)
(0.004373000231 3.755345336e-05 3.165906651e-12)
(0.006099278168 3.941448267e-05 3.275002568e-12)
(0.008260843328 4.29336016e-05 2.720994637e-12)
(0.01092342469 4.794991943e-05 3.047904254e-12)
(0.01415402251 5.402017435e-05 4.796892449e-12)
(0.01802060758 6.06736441e-05 4.865201893e-12)
(0.02259192631 6.750206855e-05 3.962597519e-12)
(0.02793731746 7.41677302e-05 4.306480898e-12)
(0.03412654627 8.039461319e-05 4.429028696e-12)
(0.04122966564 8.596197413e-05 3.947491887e-12)
(0.0493169069 9.070078391e-05 3.10487011e-12)
(0.05845859657 9.449122546e-05 2.456103429e-12)
(0.0687250959 9.725922306e-05 3.653502573e-12)
(0.08018675503 9.897076868e-05 5.23732544e-12)
(0.09291388027 9.962204693e-05 3.317216534e-12)
(0.1069767029 9.922360313e-05 1.078425758e-12)
(0.1224453487 9.777728607e-05 3.060672162e-12)
(0.1393898409 9.523977028e-05 2.962202637e-12)
(0.1578803658 9.141951817e-05 1.70200411e-12)
(0.1779891471 8.577904819e-05 1.497184558e-12)
(0.1998013168 7.796172043e-05 3.832773763e-12)
(0.223474535 7.052731445e-05 2.482947666e-12)
(0.2495663438 6.424756667e-05 -3.180019813e-13)
(0.2809484551 1.822273041e-05 1.340806236e-23)
(4.899664053e-05 1.251182758e-05 2.973118853e-12)
(0.0003086149507 3.251740817e-05 3.753977153e-12)
(0.0007376948373 5.08979381e-05 3.460839582e-12)
(0.001356238312 6.299668458e-05 3.186273921e-12)
(0.002194970849 6.940406076e-05 4.057086279e-12)
(0.003296675537 7.21617338e-05 4.137519479e-12)
(0.00471477842 7.373705187e-05 3.487392444e-12)
(0.006509639641 7.613302797e-05 4.767662835e-12)
(0.008744881484 8.032167375e-05 4.989465189e-12)
(0.01148537866 8.631212137e-05 3.032495736e-12)
(0.01479670007 9.360251647e-05 3.670991171e-12)
(0.01874508114 0.0001015702532 5.723252046e-12)
(0.02339739673 0.0001096455293 5.371995172e-12)
(0.02882105167 0.0001173489905 5.785874734e-12)
(0.03508384184 0.0001242888038 6.201622791e-12)
(0.04225382708 0.0001301547546 5.797725915e-12)
(0.05039922947 0.0001347148675 4.133624643e-12)
(0.0595883576 0.000137813197 4.180464278e-12)
(0.06988955178 0.0001393666738 6.722210583e-12)
(0.08137114824 0.0001393590427 5.150123141e-12)
(0.09410145394 0.0001378299507 4.462082993e-12)
(0.1081487279 0.0001348561637 6.819774935e-12)
(0.1235811719 0.0001305226626 4.158726038e-12)
(0.1404669666 0.000124874134 1.51876789e-12)
(0.1588746015 0.0001177956475 4.57938548e-12)
(0.1788748634 0.0001088331969 4.309781213e-12)
(0.2005518569 9.778286585e-05 2.117702279e-12)
(0.224063113 8.708760555e-05 2.426815764e-13)
(0.2499711249 7.621000518e-05 0)
(0.2811692297 2.386474909e-05 -6.195366878e-26)
(6.931581042e-05 1.703314478e-05 4.703510307e-12)
(0.0003748974342 4.618800235e-05 5.624725001e-12)
(0.000855240351 7.283509161e-05 4.967208718e-12)
(0.001529129355 9.168831637e-05 4.684135847e-12)
(0.002426431833 0.0001030219771 5.334192262e-12)
(0.003589880211 0.0001089778595 5.47651038e-12)
(0.005073460921 0.0001124637945 5.72170109e-12)
(0.006938172393 0.000116060378 4.862315254e-12)
(0.009247760919 0.0001212309403 6.664282167e-12)
(0.01206644652 0.0001282479488 7.058321893e-12)
(0.01545849923 0.0001366546202 5.558627036e-12)
(0.01948848409 0.0001457530065 7.206503816e-12)
(0.02422143438 0.0001548619374 6.860214132e-12)
(0.0297228375 0.0001633938739 7.352099715e-12)
(0.03605853281 0.0001708637349 8.037641885e-12)
(0.04329459929 0.0001768859708 7.403314158e-12)
(0.05149726237 0.0001811722812 7.96717723e-12)
(0.0607328255 0.0001835298626 7.587624216e-12)
(0.07106762413 0.0001838578348 6.634234299e-12)
(0.08256799837 0.0001821398592 5.659768347e-12)
(0.09530027918 0.0001784305162 9.000843156e-12)
(0.1093307874 0.0001728320464 6.733122354e-12)
(0.1247258476 0.0001654591637 5.076589957e-12)
(0.1415518612 0.0001563820813 5.414011604e-12)
(0.1598757019 0.0001455043745 1.981286926e-12)
(0.1797668009 0.0001324067044 1.807497586e-12)
(0.2013083675 0.000116935101 1.708588109e-12)
(0.2246583984 0.0001013320718 4.937328492e-12)
(0.2503854479 8.46047464e-05 4.962367166e-12)
(0.2813999229 2.720114512e-05 -6.22296183e-13)
(9.040356447e-05 2.152495559e-05 4.906010099e-12)
(0.0004440097969 5.952801079e-05 6.346790253e-12)
(0.0009779828971 9.426689859e-05 6.244306779e-12)
(0.001709910373 0.0001200606284 5.000321896e-12)
(0.002668610222 0.000136908485 5.229487332e-12)
(0.003896431929 0.0001468927981 6.862289982e-12)
(0.005447625866 0.0001531388818 7.20781606e-12)
(0.007383697194 0.0001586274902 7.681316681e-12)
(0.009768567495 0.0001652373889 6.429580938e-12)
(0.01266593979 0.000173519783 7.445334322e-12)
(0.01613890792 0.0001831165833 5.095481671e-12)
(0.02025044244 0.0001933049107 6.279201621e-12)
(0.02506377683 0.0002033283741 8.353754534e-12)
(0.03064250674 0.0002125162235 6.825115503e-12)
(0.03705053516 0.0002203077177 7.139790769e-12)
(0.04435197835 0.0002262537488 8.904392529e-12)
(0.05261108378 0.0002300162784 1.006360678e-11)
(0.06189216975 0.000231367289 6.316005986e-12)
(0.07225958852 0.0002301850036 8.241141683e-12)
(0.08377770996 0.0002264457004 1.004666617e-11)
(0.09651092053 0.0002202080792 7.537826167e-12)
(0.1105236402 0.0002115876353 8.187456308e-12)
(0.1258803593 0.0002007184898 6.314431399e-12)
(0.1426457508 0.0001876944547 6.367223917e-12)
(0.1608851121 0.0001724522994 2.328227563e-12)
(0.1806665416 0.0001546360553 1.849242276e-12)
(0.2020723971 0.000134171662 6.28386123e-12)
(0.2252613805 0.0001132321299 1.785903998e-12)
(0.250808321 9.079309724e-05 4.263372804e-13)
(0.2816372312 2.949775865e-05 -7.635593163e-13)
(0.0001127475966 2.619550021e-05 5.860144945e-12)
(0.0005168933606 7.316288417e-05 7.656281213e-12)
(0.001106942039 0.0001159940937 7.562126264e-12)
(0.001899405556 0.0001488329135 7.51263018e-12)
(0.002922060524 0.0001715292653 7.195041327e-12)
(0.004216730012 0.0001860800383 8.276075043e-12)
(0.00583771495 0.000195710189 8.723079033e-12)
(0.007846864162 0.0002036652415 9.311441984e-12)
(0.01030823912 0.0002121480576 9.849796004e-12)
(0.01328509304 0.0002219639761 1.049176439e-11)
(0.01683943474 0.0002328728912 1.109135309e-11)
(0.02103270948 0.0002441570121 9.088052714e-12)
(0.02592639378 0.0002550095881 9.819004435e-12)
(0.03158222029 0.0002646948657 1.104057652e-11)
(0.03806217762 0.000272590105 1.072617237e-11)
(0.04542843974 0.0002781929938 7.754737849e-12)
(0.05374329581 0.0002811234472 8.14862014e-12)
(0.0630690993 0.0002811235666 8.068745913e-12)
(0.07346824197 0.0002780543315 8.173876249e-12)
(0.0850031469 0.0002718872563 8.934805037e-12)
(0.09773628365 0.0002626880954 8.182461046e-12)
(0.1117301996 0.0002505905442 9.615071753e-12)
(0.1270475832 0.0002357577194 8.127856613e-12)
(0.1437514024 0.0002183247647 7.094670927e-12)
(0.1619053961 0.0001982895098 7.919953342e-12)
(0.1815763282 0.0001753929816 7.078891443e-12)
(0.2028457252 0.0001496843258 2.164355002e-12)
(0.2258731017 0.0001233840409 1.011325678e-12)
(0.251239548 9.563723357e-05 -5.12886702e-13)
(0.2818799612 3.12119225e-05 -3.550529062e-23)
(0.0001366307524 3.115081059e-05 8.337004347e-12)
(0.0005941421793 8.745813767e-05 9.039687005e-12)
(0.001242815639 0.0001385592649 8.890375278e-12)
(0.002098215262 0.0001785852664 8.887107333e-12)
(0.003187174664 0.0002073660562 7.21188535e-12)
(0.004550971852 0.0002268493298 7.646971228e-12)
(0.006243833266 0.0002403133618 1.026589896e-11)
(0.008327802785 0.0002511802893 1.093804166e-11)
(0.01086700511 0.0002618968228 9.816727684e-12)
(0.01392425953 0.0002734832429 9.493757569e-12)
(0.01756055138 0.0002858168617 1.091011161e-11)
(0.02183585948 0.0002982011986 1.043608164e-11)
(0.02680994626 0.0003097962788 1.129694836e-11)
(0.03254271199 0.000319815395 1.271981795e-11)
(0.03909425527 0.0003275852248 1.199709679e-11)
(0.04652482979 0.0003325600426 1.341794996e-11)
(0.05489478745 0.0003343263588 1.268284844e-11)
(0.06426453881 0.000332604255 1.442268364e-11)
(0.07469453635 0.0003272451396 3.985098849e-12)
(0.08624528039 0.0003182237288 5.410258334e-12)
(0.09897734618 0.0003056221419 8.631446916e-12)
(0.112951434 0.000289604001 1.035145892e-11)
(0.12822845 0.0002703772183 9.404152763e-12)
(0.1448696752 0.0002481397045 3.601164902e-12)
(0.1629372913 0.0002229778078 3.047155948e-12)
(0.1824967218 0.0001947614041 1.589905245e-12)
(0.203628663 0.0001637060343 9.305538606e-12)
(0.2264934951 0.0001321619479 7.115332951e-12)
(0.2516785316 9.952851894e-05 2.079506815e-13)
(0.2821272741 3.253495121e-05 -1.045556523e-12)
(0.0001622063804 3.644207044e-05 8.08557564e-12)
(0.0006761412685 0.0001026067163 1.268638081e-11)
(0.001386122749 0.0001622851144 1.027720947e-11)
(0.002306860657 0.0002097053136 1.032721474e-11)
(0.003464370731 0.0002447836589 1.042691105e-11)
(0.004899440107 0.0002694757993 8.578113807e-12)
(0.00666616817 0.0002871083614 9.246131011e-12)
(0.008826680646 0.0003012296731 1.077561093e-11)
(0.01144507661 0.0003144687299 1.30688528e-11)
(0.01458372507 0.0003280202502 1.398613903e-11)
(0.01830262321 0.0003418683699 1.229656287e-11)
(0.02266033066 0.0003553452063 1.184744436e-11)
(0.0277149356 0.0003675895136 1.276052692e-11)
(0.0335245359 0.0003777749518 1.446599555e-11)
(0.04014736573 0.0003851877456 1.347541012e-11)
(0.04764178112 0.0003892482652 1.535481839e-11)
(0.05606621859 0.0003895187427 1.060319501e-11)
(0.06547916702 0.000385706413 1.064673382e-11)
(0.07593916117 0.0003776624914 1.568598774e-11)
(0.08750479993 0.0003653751169 9.514838265e-12)
(0.1002347862 0.0003489544546 1.032815796e-11)
(0.1141879915 0.0003286079341 1.088295663e-11)
(0.1294235573 0.0003046052574 4.105917112e-12)
(0.1460010846 0.0002772280626 9.638146295e-12)
(0.1639811954 0.000246676035 1.097871582e-11)
(0.1834279582 0.0002129765425 1.345059993e-12)
(0.204421229 0.0001765473993 2.351224418e-12)
(0.2271222937 0.0001399180815 9.783805003e-13)
(0.2521246853 0.0001027630363 8.529719719e-12)
(0.282378536 3.360242498e-05 8.082851552e-12)
(0.0001895856887 4.210105227e-05 7.241073586e-12)
(0.0007631951733 0.0001187213455 1.211784096e-11)
(0.001537309599 0.0001873724312 1.428366681e-11)
(0.002525843927 0.0002424528201 1.176151716e-11)
(0.003754122923 0.0002840483395 1.189829105e-11)
(0.005262535638 0.0003141823715 1.228970809e-11)
(0.007105055717 0.0003362463371 1.022810387e-11)
(0.009343814021 0.0003538904667 1.399665047e-11)
(0.01204279994 0.0003698823657 1.484919472e-11)
(0.01526389723 0.0003855552574 1.340626097e-11)
(0.01906612949 0.0004009853153 1.371267508e-11)
(0.02350667252 0.0004155349446 1.316373857e-11)
(0.02864197453 0.0004283299472 1.09565423e-11)
(0.03452836001 0.0004385136701 1.144059923e-11)
(0.04122222333 0.0004453410971 1.488717932e-11)
(0.04878004519 0.0004482078085 1.665770912e-11)
(0.05725836811 0.0004466609889 1.787508833e-11)
(0.06671377957 0.0004404045877 1.095015987e-11)
(0.07720291762 0.0004292997405 1.240141456e-11)
(0.08878249888 0.0004133589995 1.619428081e-11)
(0.1015093723 0.0003927328459 1.217484712e-11)
(0.1154405976 0.000367686625 1.120818419e-11)
(0.1306335616 0.0003385683649 1.848365119e-11)
(0.1471461892 0.000305762666 9.989888504e-12)
(0.1650375354 0.0002696044083 1.154696034e-11)
(0.184370293 0.0002303024134 9.173898484e-12)
(0.2052234705 0.0001885025812 2.20586544e-12)
(0.2277593095 0.0001469376938 1.869209257e-12)
(0.2525776095 0.0001055495206 -5.517612942e-13)
(0.2826333455 3.450048468e-05 -1.917730606e-13)
(0.0002188660168 4.815170685e-05 1.352985129e-11)
(0.000855570861 0.0001358781518 1.365225482e-11)
(0.001696777476 0.0002139573096 1.344367121e-11)
(0.002755643235 0.0002770107091 1.6116671e-11)
(0.004056922535 0.0003253592329 1.34018587e-11)
(0.00564071862 0.0003611497021 1.192100924e-11)
(0.007560915986 0.0003878646278 1.120930834e-11)
(0.009879606796 0.0004092486615 1.214895584e-11)
(0.01266059849 0.0004281790624 1.414531536e-11)
(0.01596524562 0.0004460981162 1.475279896e-11)
(0.01985159832 0.000463158475 1.817783333e-11)
(0.02437547262 0.0004787512786 1.909264033e-11)
(0.02959170585 0.0004919950321 1.667598942e-11)
(0.03555487551 0.0005020105368 1.594981368e-11)
(0.04231955922 0.0005080298891 1.232630732e-11)
(0.04994038412 0.0005094325632 1.326216415e-11)
(0.05847201883 0.0005057597702 1.848271599e-11)
(0.06796916974 0.0004967217245 1.913192561e-11)
(0.07848659642 0.0004821997146 1.269137474e-11)
(0.09007915206 0.000462241804 5.34235718e-12)
(0.1028018469 0.0004370509365 1.327652026e-11)
(0.1167099421 0.0004069641399 1.226396353e-11)
(0.1318590783 0.0003724232339 7.155932723e-12)
(0.1483055036 0.0003339329923 1.011480003e-11)
(0.1661066939 0.0002919821306 1.080908775e-11)
(0.1853239508 0.0002469798533 3.464999872e-12)
(0.2060354303 0.0001998165086 2.059796637e-12)
(0.2284044105 0.0001534355654 1.204348127e-11)
(0.253037035 0.0001080293748 9.568303789e-12)
(0.2828914424 3.528245967e-05 -1.797936007e-12)
(0.0002501416901 5.461523528e-05 1.16344958e-11)
(0.0009535201274 0.0001541373188 1.844164746e-11)
(0.001864904779 0.0002421428695 1.495919396e-11)
(0.002996722064 0.0003135184687 1.307409347e-11)
(0.00437327034 0.0003688740936 1.493551169e-11)
(0.006034487649 0.0004105301505 1.853207181e-11)
(0.008034229145 0.0004420902295 1.58392285e-11)
(0.01043453043 0.0004673963314 1.32202501e-11)
(0.01329895835 0.0004894175809 1.536898938e-11)
(0.01668829289 0.0005096824581 1.604648892e-11)
(0.02065960038 0.0005284056473 1.539122022e-11)
(0.02526735234 0.0005450038161 1.770335879e-11)
(0.03056479848 0.0005585919499 1.823502178e-11)
(0.03660479279 0.0005682748691 1.304562472e-11)
(0.04344011789 0.0005732693219 1.310948045e-11)
(0.05112356747 0.0005729469223 1.899496126e-11)
(0.05970795591 0.0005668517185 1.957203161e-11)
(0.06924612678 0.0005547096042 2.118215708e-11)
(0.07979097917 0.0005364320293 2.107692937e-11)
(0.09139551818 0.0005121134454 1.280923876e-11)
(0.1041129309 0.000482021122 6.351397186e-12)
(0.1179966896 0.000446576764 1.329225082e-11)
(0.1331006937 0.0004063301018 2.216589149e-11)
(0.1494795123 0.0003619213107 1.225775308e-11)
(0.1671890319 0.0003140085825 3.703587704e-12)
(0.1862891463 0.0002632158088 3.384386938e-12)
(0.2068571721 0.0002106863806 6.414855612e-13)
(0.2290575262 0.00015957235 2.019391309e-12)
(0.2535027962 0.0001103004017 1.626110671e-12)
(0.2831526575 3.59829787e-05 -2.077025899e-12)
(0.0002835090212 6.151244158e-05 1.013537672e-11)
(0.001057292205 0.0001735531415 1.706883204e-11)
(0.002042062195 0.0002720167339 2.010735912e-11)
(0.003249539304 0.0003520926436 1.984441419e-11)
(0.00470367655 0.0004147271151 1.645711292e-11)
(0.006444371072 0.0004624593212 1.463925728e-11)
(0.008525522723 0.0004990446211 1.499053197e-11)
(0.01100911204 0.0005284314939 1.42439007e-11)
(0.01395842092 0.0005536712727 1.959655781e-11)
(0.01743361081 0.0005763616738 2.551211024e-11)
(0.021490748 0.0005967669281 2.180572027e-11)
(0.02618296728 0.0006143254752 1.916241141e-11)
(0.03156194918 0.000628151358 1.970490164e-11)
(0.03767884449 0.0006373390445 1.979193143e-11)
(0.04458466076 0.0006410968665 1.874594642e-11)
(0.05233037693 0.0006387963375 1.548500005e-11)
(0.06096697155 0.0006299928151 1.40680851e-11)
(0.07054544235 0.0006144369753 2.319802746e-11)
(0.08111684431 0.0005920802474 2.220636432e-11)
(0.09273234965 0.0005630739625 2.304387468e-11)
(0.1054433339 0.0005277610792 2.086382789e-11)
(0.1193014894 0.0004866601359 1.429208521e-11)
(0.1343589788 0.0004404416655 6.220082729e-12)
(0.1506686879 0.0003898944118 7.37560193e-12)
(0.1682849032 0.0003358588541 2.25141268e-12)
(0.1872661036 0.0002791838773 1.261881032e-11)
(0.2076887903 0.0002212691058 9.519355638e-12)
(0.2297186495 0.0001654686905 1.864382982e-12)
(0.253974808 0.0001124316212 1.494648969e-12)
(0.2834168849 3.662531203e-05 -2.354682054e-12)
(0.0003190681877 6.886466628e-05 1.690835228e-11)
(0.001167140232 0.0001941787339 1.480026575e-11)
(0.002228621579 0.0003036602307 1.616636359e-11)
(0.003514556353 0.0003928386778 1.577962375e-11)
(0.005048662576 0.0004630401662 1.80367829e-11)
(0.006870922269 0.0005170640066 2.235698155e-11)
(0.00903536292 0.0005588475019 2.313324302e-11)
(0.01160392606 0.0005924582901 1.986629196e-11)
(0.01463957623 0.0006210260419 1.650395462e-11)
(0.01820181661 0.0006462057544 1.927945696e-11)
(0.02234569351 0.0006683010081 1.991310692e-11)
(0.02712300729 0.0006867683476 2.053356437e-11)
(0.03258388347 0.000700722779 2.106465396e-11)
(0.03877778708 0.0007092533753 2.173815834e-11)
(0.04575396826 0.0007115665053 1.94403522e-11)
(0.05356160881 0.0007070409353 2.470162554e-11)
(0.06224986778 0.0006952514808 1.479986685e-11)
(0.07186791389 0.000675982426 1.064686705e-11)
(0.08246497249 0.000649234673 6.800900442e-12)
(0.09409039636 0.0006152265425 1.025160495e-11)
(0.1067937608 0.0005743874282 6.075187295e-12)
(0.1206249855 0.0005273438605 1.526188302e-11)
(0.1356344983 0.0004748988231 2.313981693e-11)
(0.151873499 0.0004180011339 2.653163766e-11)
(0.1693946668 0.0003576839493 2.190373671e-11)
(0.1882550636 0.0002950281763 1.387510515e-11)
(0.2085304175 0.000231689352 1.71551176e-13)
(0.2303878274 0.0001712159143 1.709622088e-12)
(0.25445305 0.0001144724861 -3.783365698e-13)
(0.2836840641 3.722505581e-05 -2.63065843e-12)
(0.0003569237856 7.66941357e-05 1.690642978e-11)
(0.001283324202 0.0002160681402 2.01824758e-11)
(0.0024249612 0.0003371531387 1.983949741e-11)
(0.003792242142 0.0004358575434 2.367225496e-11)
(0.005408762968 0.0005139294873 1.963833114e-11)
(0.007314717826 0.0005744672365 1.74035944e-11)
(0.009564350049 0.0006216192689 1.776220124e-11)
(0.0122195886 0.0006595870348 1.842978132e-11)
(0.01534305891 0.0006915787682 1.754673596e-11)
(0.01899357031 0.0007192988002 2.046089e-11)
(0.02322512816 0.0007430821594 2.127338744e-11)
(0.02808819673 0.0007624003839 2.187265815e-11)
(0.03363135676 0.000776371081 2.245510247e-11)
(0.0399024023 0.0007840824481 2.346014745e-11)
(0.04694884197 0.0007847449649 1.534183134e-11)
(0.0548180761 0.0007777516927 1.763684423e-11)
(0.0635574602 0.0007627047608 2.487833397e-11)
(0.07321434822 0.0007394305934 2.393378049e-11)
(0.08383615024 0.0007079886838 2.390610812e-11)
(0.09547041164 0.0006686740271 2.614411659e-11)
(0.1081649169 0.0006220125581 1.55847174e-11)
(0.1219678207 0.0005687492131 6.081577466e-12)
(0.1369278174 0.0005098298339 5.822209224e-12)
(0.1530944191 0.0004463731442 7.348611863e-12)
(0.1705186931 0.0003796133195 4.566856499e-12)
(0.1892562912 0.0003108680386 4.604885248e-12)
(0.2093822226 0.00024204658 1.451163193e-12)
(0.2310651579 0.0001768841301 -1.276108734e-13)
(0.2549375538 0.000116459471 -2.506967964e-12)
(0.2839541659 3.779338456e-05 -2.904714074e-12)
(0.0003971848325 8.502404064e-05 1.672519436e-11)
(0.001406112568 0.0002392772281 2.666615132e-11)
(0.002631469022 0.0003725761167 2.149159799e-11)
(0.004083076799 0.0004812494914 1.860656879e-11)
(0.005784527902 0.0005675097815 1.839973744e-11)
(0.0077763573 0.0006347914848 1.857472701e-11)
(0.010113116 0.0006874825783 1.894010499e-11)
(0.0128567543 0.0007299340577 1.957861148e-11)
(0.01606954503 0.0007654358512 1.490092377e-11)
(0.01980957329 0.000795736855 1.556538671e-11)
(0.02412978221 0.0008211977943 2.261657501e-11)
(0.02907929545 0.0008413028418 2.317734655e-11)
(0.0347051562 0.0008551738444 2.345556165e-11)
(0.04105349989 0.0008619024313 2.554859729e-11)
(0.04817010753 0.0008607090244 2.4084791e-11)
(0.0561006126 0.00085100778 2.369925236e-11)
(0.06489058086 0.0008324357581 2.664697359e-11)
(0.0745855656 0.0008048697656 2.568875704e-11)
(0.08523117423 0.0007684366663 2.572530469e-11)
(0.09687315616 0.0007235173287 2.819842788e-11)
(0.1095575143 0.000670743718 2.547613708e-11)
(0.1233306435 0.0006109888409 2.548373308e-11)
(0.138239508 0.0005453506844 2.75210806e-11)
(0.1543319315 0.0004751263657 2.712587258e-11)
(0.1716573688 0.000401757848 1.611782303e-11)
(0.1902700762 0.0003268027796 2.866519479e-12)
(0.210244411 0.0002524209 2.944157297e-12)
(0.2317507818 0.0001825278259 -1.458830755e-11)
(0.2554283907 0.0001184197646 -1.724820859e-11)
(0.2842271859 3.833824627e-05 -3.176605979e-12)
(0.0004399647676 9.387855516e-05 2.204610249e-11)
(0.001535783163 0.000263864091 2.110631802e-11)
(0.002848544833 0.0004100119407 2.028429495e-11)
(0.004387554407 0.000529116072 2.269902567e-11)
(0.006176525123 0.0006238965083 2.754710007e-11)
(0.008256463783 0.0006981605396 2.793982554e-11)
(0.01068232323 0.0007565632586 2.887740156e-11)
(0.01351611438 0.0008036215237 3.005924197e-11)
(0.01681975084 0.0008427121082 2.769760952e-11)
(0.02065056777 0.0008756262635 2.034710349e-11)
(0.02506042522 0.0009027465502 2.377528593e-11)
(0.03009710007 0.0009235682969 2.453331056e-11)
(0.03580610265 0.0009372194301 2.483101351e-11)
(0.04223191998 0.0009427992414 2.618685793e-11)
(0.04941861774 0.000939543761 2.669435814e-11)
(0.05741007544 0.0009268949144 2.410776776e-11)
(0.06625008234 0.0009045320879 2.837877598e-11)
(0.0759824036 0.0008723904611 2.863567789e-11)
(0.08665085574 0.0008306727381 1.822113341e-11)
(0.09829940281 0.0007798544645 1.258911776e-11)
(0.1109722747 0.0007206825551 6.130365129e-12)
(0.1247141126 0.0006541669285 -2.709637893e-12)
(0.1395701539 0.0005815660744 -3.55803064e-12)
(0.1555865347 0.0005043629262 5.252339545e-12)
(0.1728111016 0.0004242127599 1.719092566e-11)
(0.1912967365 0.0003429152433 2.520967688e-11)
(0.2111172232 0.0002628770927 2.814232333e-11)
(0.2324448781 0.0001881897372 1.102418481e-11)
(0.2559256678 0.0001203739579 -4.615631696e-12)
(0.2845031379 3.886528146e-05 -3.446088171e-12)
(0.000485381277 0.0001032827996 2.180494336e-11)
(0.001672623534 0.0002898891317 3.102653718e-11)
(0.003076601625 0.0004495460637 3.010153687e-11)
(0.004706185213 0.0005795612922 2.426355661e-11)
(0.006585342173 0.0006832073362 2.121584546e-11)
(0.008755685171 0.0007647007504 2.124822991e-11)
(0.01127266493 0.0008289909171 2.176050526e-11)
(0.0141983962 0.0008807772176 2.246577372e-11)
(0.0175944323 0.0009235298712 2.954583817e-11)
(0.02151733658 0.0009590822822 2.829030085e-11)
(0.02601786682 0.0009878366623 2.497689554e-11)
(0.03114244538 0.001009298932 2.586216876e-11)
(0.03693505261 0.001022605237 2.617373087e-11)
(0.04343853546 0.001026866819 2.666584358e-11)
(0.05069525504 0.00102134098 2.941617656e-11)
(0.05874734859 0.001005503982 1.855746739e-11)
(0.06763684056 0.0009790847243 1.153873998e-11)
(0.07740572018 0.0009420845808 1.223770128e-11)
(0.08809602414 0.0008947902525 1.895470981e-11)
(0.09974994057 0.0008377803618 3.105013752e-11)
(0.112409935 0.0007719252234 2.806750145e-11)
(0.1261189012 0.0006983798229 2.943117846e-11)
(0.1409203541 0.0006185706394 1.763368583e-11)
(0.1568587451 0.0005341729592 1.537980296e-12)
(0.1739803207 0.0004470600903 5.307628414e-12)
(0.192336618 0.0003592751101 3.856799361e-12)
(0.2120009328 0.0002734683837 2.286035917e-12)
(0.2331476611 0.0001939042641 1.411294357e-11)
(0.2564295196 0.0001223383116 1.075633948e-11)
(0.2847820508 3.93790438e-05 -6.122136543e-12)
(0.00053355623 0.0001132628278 2.124340643e-11)
(0.001816931464 0.0003174151579 3.038670877e-11)
(0.003316067054 0.000491267039 2.342082306e-11)
(0.005039497496 0.0006326923549 2.262600529e-11)
(0.007011588248 0.0007455630286 2.56997442e-11)
(0.009274695557 0.000834541786 3.18235079e-11)
(0.01188486572 0.0009048992665 2.914307349e-11)
(0.01490436344 0.0009615342825 2.349335752e-11)
(0.01839438491 0.001008018196 2.451906798e-11)
(0.02241070398 0.001046227971 2.525998167e-11)
(0.02700295769 0.001076584676 2.623649227e-11)
(0.03221620606 0.001098605185 2.706049679e-11)
(0.03809290043 0.001111436411 2.748125842e-11)
(0.04467425463 0.00111420597 2.811490206e-11)
(0.05200093462 0.001106198106 3.105021864e-11)
(0.06011334572 0.001086929932 2.180602187e-11)
(0.06905175912 0.001056187033 1.776772065e-11)
(0.07885639799 0.001014044605 3.109062409e-11)
(0.08956753029 0.0009608812478 2.839379137e-11)
(0.1012255782 0.0008973866518 3.143063438e-11)
(0.1138712506 0.0008245624682 2.010170301e-11)
(0.1275457011 0.0007437163879 1.040783652e-11)
(0.1422907268 0.0006564498738 1.675497943e-11)
(0.1581491005 0.0005646362863 2.732187889e-11)
(0.1751654807 0.0004703709091 1.668287572e-11)
(0.1933900947 0.0003759413188 3.627692197e-12)
(0.2128958447 0.000284238597 3.652651332e-14)
(0.2338593744 0.0001996989274 -1.791152257e-12)
(0.2569401061 0.0001243253435 6.954205908e-13)
(0.2850639651 3.988272013e-05 -9.053645886e-12)
(0.0005846157468 0.0001238456106 2.763041413e-11)
(0.001969015461 0.0003465073728 3.257971144e-11)
(0.003567384367 0.0005352666212 3.454991983e-11)
(0.005388039201 0.0006886199553 3.010010276e-11)
(0.007455896281 0.0008110879558 2.097788561e-11)
(0.009814197017 0.0009078171463 2.395471736e-11)
(0.0125196829 0.0009844264299 3.088992257e-11)
(0.01563481686 0.00104603115 3.159630278e-11)
(0.01922044491 0.001096312357 2.561911486e-11)
(0.02333153635 0.001137193304 2.646020828e-11)
(0.0280165914 0.001169114394 3.274488255e-11)
(0.03331929859 0.001191604621 3.709768764e-11)
(0.03928058084 0.001203824664 2.966052301e-11)
(0.04594002409 0.001204923185 2.832952333e-11)
(0.05333660734 0.001194217122 2.424489702e-11)
(0.06150901385 0.001171270977 2.254024373e-11)
(0.07049577098 0.001135934128 2.63715474e-11)
(0.08033534718 0.001088363041 3.275286668e-11)
(0.09106625087 0.001029035932 2.084905457e-11)
(0.1027271479 0.0009587613582 9.916535515e-12)
(0.1153569993 0.0008786798603 2.256138738e-11)
(0.128995225 0.0007902588877 3.208139331e-11)
(0.143681912 0.0006952812484 6.214485535e-12)
(0.1594581622 0.0005958236131 -8.044146088e-12)
(0.176367062 0.0004942068949 1.754514889e-11)
(0.1944575694 0.000392964035 1.574721524e-11)
(0.2138022937 0.0002952244196 -2.417858957e-12)
(0.2345802909 0.0002055964378 -2.136731989e-12)
(0.2574576078 0.0001263451492 -1.931484016e-12)
(0.2853489312 4.037878816e-05 -6.903314131e-12)
(0.0006386902316 0.0001350590423 2.700423885e-11)
(0.002129195132 0.0003772334073 3.843413726e-11)
(0.003831013632 0.0005816399794 3.335749083e-11)
(0.005752379934 0.0007474587072 3.203342801e-11)
(0.007918924866 0.0008799105583 3.227374144e-11)
(0.01037492165 0.0009846645202 3.186067426e-11)
(0.01317790816 0.001067715049 2.56228959e-11)
(0.01639059595 0.001134411368 3.342724606e-11)
(0.02007349026 0.001188553415 3.434521481e-11)
(0.02428074425 0.001232114507 2.753536981e-11)
(0.02905970574 0.001265556006 2.025728294e-11)
(0.0344526836 0.001288420968 2.339500681e-11)
(0.04049907127 0.001299887327 3.142710551e-11)
(0.04723683131 0.001299129676 3.092071261e-11)