# vtk DataFile Version 2.0
track0
ASCII
DATASET POLYDATA
POINTS 12278 float
-0.0205 0.001 1e-05
-0.02052 0.000999216 1e-05
-0.02054 0.000998592 1e-05
-0.02056 0.000998126 1e-05
-0.02058 0.000997818 1e-05
-0.0206 0.000997665 1e-05
-0.0205 0.00367778 1e-05
-0.02052 0.00367703 1e-05
-0.02054 0.00367643 1e-05
-0.02056 0.00367599 1e-05
-0.02058 0.00367569 1e-05
-0.0206 0.00367554 1e-05
-0.0205 0.00635556 1e-05
-0.02052 0.00635527 1e-05
-0.02054 0.00635505 1e-05
-0.02056 0.00635488 1e-05
-0.02058 0.00635476 1e-05
-0.0206 0.00635471 1e-05
-0.0205 0.00903333 1e-05
-0.02052 0.00903311 1e-05
-0.02054 0.00903293 1e-05
-0.02056 0.0090328 1e-05
-0.02058 0.00903271 1e-05
-0.0206 0.00903266 1e-05
-0.0205 0.0117111 1e-05
-0.02052 0.0117111 1e-05
-0.02054 0.011711 1e-05
-0.02056 0.011711 1e-05
-0.02058 0.011711 1e-05
-0.0206 0.011711 1e-05
-0.0205 0.0143889 1e-05
-0.02052 0.014389 1e-05
-0.02054 0.014389 1e-05
-0.02056 0.0143891 1e-05
-0.02058 0.0143891 1e-05
-0.0206 0.0143891 1e-05
-0.0205 0.0170667 1e-05
-0.02052 0.017067 1e-05
-0.02054 0.0170672 1e-05
-0.02056 0.0170674 1e-05
-0.02058 0.0170675 1e-05
-0.0206 0.0170676 1e-05
-0.0205 0.0197444 1e-05
-0.02052 0.019745 1e-05
-0.02054 0.0197454 1e-05
-0.02056 0.0197457 1e-05
-0.02058 0.0197459 1e-05
-0.0206 0.019746 1e-05
-0.0205 0.0224222 1e-05
-0.02052 0.022423 1e-05
-0.02054 0.0224236 1e-05
-0.02056 0.0224241 1e-05
-0.02058 0.0224244 1e-05
-0.0206 0.0224245 1e-05
-0.0205 0.0251 1e-05
-0.02052 0.0251003 1e-05
-0.02054 0.0251005 1e-05
-0.02056 0.0251007 1e-05
-0.02058 0.0251008 1e-05
-0.0206 0.0251008 1e-05
-0.0205 0.001 1e-05
-0.0203632 0.00100536 1e-05
-0.0202266 0.00101331 1e-05
-0.0200901 0.00102296 1e-05
-0.0200427 0.00102682 1e-05
-0.0198376 0.00104418 1e-05
-0.0196338 0.00107322 1e-05
-0.0194327 0.00111734 1e-05
-0.0192368 0.00118024 1e-05
-0.0190172 0.00124951 1e-05
-0.0189002 0.00128348 1e-05
-0.0187827 0.00131598 1e-05
-0.0186649 0.001347 1e-05
-0.0185469 0.001377 1e-05
-0.0183807 0.00141936 1e-05
-0.0182041 0.00146458 1e-05
-0.0180267 0.00150692 1e-05
-0.0178487 0.0015464 1e-05
-0.0176703 0.00158389 1e-05
-0.0174976 0.00161991 1e-05
-0.0172846 0.00166394 1e-05
-0.0170715 0.00170741 1e-05
-0.0168583 0.00175029 1e-05
-0.0166449 0.00179219 1e-05
-0.0163945 0.00184007 1e-05
-0.0163234 0.00185324 1e-05
-0.0162522 0.00186629 1e-05
-0.016181 0.00187921 1e-05
-0.0161097 0.00189201 1e-05
-0.0160387 0.0019046 1e-05
-0.0157586 0.0019535 1e-05
-0.0154779 0.00199931 1e-05
-0.0151968 0.00204225 1e-05
-0.0149154 0.00208283 1e-05
-0.0146381 0.00212134 1e-05
-0.0143838 0.00215527 1e-05
-0.0141293 0.00218766 1e-05
-0.0138747 0.00221855 1e-05
-0.0136198 0.00224797 1e-05
-0.0132934 0.00228369 1e-05
-0.0132791 0.00228514 1e-05
-0.0132648 0.0022866 1e-05
-0.0132504 0.00228805 1e-05
-0.0132361 0.0022895 1e-05
-0.0132213 0.00229098 1e-05
-0.0129776 0.00231543 1e-05
-0.0127337 0.00233865 1e-05
-0.0124897 0.00236061 1e-05
-0.0122456 0.00238129 1e-05
-0.0120025 0.00240058 1e-05
-0.0117547 0.00241909 1e-05
-0.0115067 0.00243627 1e-05
-0.0112587 0.00245231 1e-05
-0.0110106 0.00246734 1e-05
-0.0107632 0.00248136 1e-05
-0.0105252 0.00249391 1e-05
-0.0102872 0.00250547 1e-05
-0.0100491 0.00251602 1e-05
-0.00981105 0.00252575 1e-05
-0.00957337 0.00253471 1e-05
-0.00934491 0.00254261 1e-05
-0.00911643 0.00254974 1e-05
-0.00888792 0.00255611 1e-05
-0.0086594 0.00256172 1e-05
-0.00843108 0.00256669 1e-05
-0.00821175 0.00257085 1e-05
-0.00799241 0.00257439 1e-05
-0.00777306 0.00257731 1e-05
-0.0075537 0.00257953 1e-05
-0.00733443 0.00258115 1e-05
-0.00712387 0.00258213 1e-05
-0.0069133 0.00258257 1e-05
-0.00670273 0.00258244 1e-05
-0.00649216 0.00258163 1e-05
-0.0062816 0.00258019 1e-05
-0.00607944 0.00257821 1e-05
-0.0058773 0.00257567 1e-05
-0.00567516 0.00257258 1e-05
-0.00547303 0.00256876 1e-05
-0.00527083 0.00256421 1e-05
-0.00507675 0.00255915 1e-05
-0.00488269 0.00255345 1e-05
-0.00468865 0.00254713 1e-05
-0.00449464 0.00254 1e-05
-0.00430044 0.00253194 1e-05
-0.00411412 0.00252332 1e-05
-0.00392784 0.00251391 1e-05
-0.00374159 0.00250372 1e-05
-0.0035554 0.00249259 1e-05
-0.00336883 0.0024802 1e-05
-0.00318995 0.00246716 1e-05
-0.00301115 0.00245304 1e-05
-0.00283245 0.00243779 1e-05
-0.00265386 0.00242126 1e-05
-0.00247443 0.00240319 1e-05
-0.0023027 0.00238431 1e-05
-0.00213114 0.0023639 1e-05
-0.00195982 0.0023416 1e-05
-0.00178875 0.00231745 1e-05
-0.00161577 0.00229112 1e-05
-0.00161559 0.00229109 1e-05
-0.00161541 0.00229107 1e-05
-0.00161524 0.00229104 1e-05
-0.00161506 0.00229101 1e-05
-0.00161488 0.00229098 1e-05
-0.00145019 0.00226408 1e-05
-0.0012859 0.00223484 1e-05
-0.00112203 0.0022033 1e-05
-0.00095861 0.00216952 1e-05
-0.000791418 0.00213244 1e-05
-0.000633135 0.00209433 1e-05
-0.000475556 0.00205341 1e-05
-0.000318719 0.00200973 1e-05
-0.000162834 0.00196276 1e-05
0 0.00190961 1e-05
3.73956e-05 0.0018964 1e-05
7.46908e-05 0.0018829 1e-05
0.000111887 0.00186913 1e-05
0.000148986 0.0018551 1e-05
0.000179331 0.00184338 1e-05
0.000249142 0.00181596 1e-05
0.000318543 0.00178752 1e-05
0.00038752 0.00175806 1e-05
0.000456057 0.0017276 1e-05
0.000528387 0.00169425 1e-05
0.000634886 0.00164327 1e-05
0.000740278 0.00159004 1e-05
0.00084451 0.00153458 1e-05
0.000947621 0.00147706 1e-05
0.00102011 0.00143469 1e-05
0.00102826 0.00142976 1e-05
0.00103641 0.00142482 1e-05
0.00104454 0.00141986 1e-05
0.00105267 0.00141488 1e-05
0.00106088 0.00140984 1e-05
0.00116821 0.00134366 1e-05
0.00127404 0.00127511 1e-05
0.00137827 0.00120416 1e-05
0.00148099 0.00113103 1e-05
0.00159692 0.00104511 1e-05
0.00159704 0.00104502 1e-05
0.00159716 0.00104492 1e-05
0.00159728 0.00104483 1e-05
0.0015974 0.00104474 1e-05
0.00159752 0.00104464 1e-05
0.00169224 0.00097104 1e-05
0.00178555 0.000895668 1e-05
0.00187739 0.000818495 1e-05
0.0019678 0.000739667 1e-05
0.00203822 0.000676369 1e-05
0.00205824 0.00065792 1e-05
0.00207818 0.000639382 1e-05
0.00209804 0.000620755 1e-05
0.00211783 0.000602065 1e-05
0.00213833 0.000582595 1e-05
0.00219151 0.000531735 1e-05
0.00224419 0.000480357 1e-05
0.00229636 0.000428454 1e-05
0.00234799 0.000376018 1e-05
0.00239433 0.000328256 1e-05
0.00245213 0.000267842 1e-05
0.0025093 0.000206829 1e-05
0.00256584 0.000145234 1e-05
0.00262187 8.31732e-05 1e-05
0.00268334 1.39107e-05 1e-05
0.00268576 1.11286e-05 1e-05
0.00268818 8.34537e-06 1e-05
0.0026906 5.56113e-06 1e-05
0.00269301 2.77582e-06 1e-05
0.00269542 0 1e-05
0.00275932 -7.37369e-05 1e-05
0.0028226 -0.000148005 1e-05
0.00288524 -0.000222814 1e-05
0.00294721 -0.000298174 1e-05
0.00300428 -0.000368655 1e-05
0.00304994 -0.000425879 1e-05
0.0030953 -0.00048335 1e-05
0.00314034 -0.000541061 1e-05
0.00318513 -0.000598967 1e-05
0.00323259 -0.00066088 1e-05
0.00325068 -0.000684723 1e-05
0.00326872 -0.000708606 1e-05
0.0032867 -0.000732529 1e-05
0.00330463 -0.000756493 1e-05
0.00332222 -0.000780091 1e-05
0.00339036 -0.000871878 1e-05
0.0034579 -0.000964109 1e-05
0.00352482 -0.00105679 1e-05
0.00359119 -0.00114987 1e-05
0.00365405 -0.00123896 1e-05
0.00368046 -0.00127679 1e-05
0.0037068 -0.00131468 1e-05
0.00373306 -0.00135262 1e-05
0.00375927 -0.00139059 1e-05
0.00378611 -0.00142959 1e-05
0.00383013 -0.00149377 1e-05
0.00387394 -0.00155809 1e-05
0.00391752 -0.00162256 1e-05
0.00396088 -0.00168719 1e-05
0.00400307 -0.00175044 1e-05
0.00407124 -0.00185322 1e-05
0.004139 -0.00195628 1e-05
0.00420633 -0.00205962 1e-05
0.00427337 -0.00216314 1e-05
0.00434393 -0.00227276 1e-05
0.00435001 -0.00228227 1e-05
0.00435608 -0.00229178 1e-05
0.00436215 -0.0023013 1e-05
0.00436822 -0.00231081 1e-05
0.00437427 -0.0023203 1e-05
0.00445511 -0.00244725 1e-05
0.00453549 -0.00257449 1e-05
0.00461548 -0.00270197 1e-05
0.00469512 -0.00282968 1e-05
0.00477298 -0.00295498 1e-05
0.0047996 -0.00299797 1e-05
0.0048262 -0.00304098 1e-05
0.00485277 -0.003084 1e-05
0.00487933 -0.00312703 1e-05
0.00490609 -0.00317038 1e-05
0.00496673 -0.00326863 1e-05
0.00502723 -0.00336697 1e-05
0.00508757 -0.00346541 1e-05
0.00514778 -0.00356392 1e-05
0.00520743 -0.00366161 1e-05
0.00526047 -0.00374852 1e-05
0.00531347 -0.00383546 1e-05
0.00536642 -0.00392242 1e-05
0.00541941 -0.00400937 1e-05
0.00547262 -0.00409658 1e-05
0.00551558 -0.00416689 1e-05
0.00555851 -0.00423721 1e-05
0.0056014 -0.00430756 1e-05
0.00564428 -0.00437792 1e-05
0.00568709 -0.00444811 1e-05
0.00575838 -0.00456491 1e-05
0.00582972 -0.00468167 1e-05
0.00590111 -0.00479841 1e-05
0.00597263 -0.00491507 1e-05
0.00604356 -0.00503029 1e-05
0.00607977 -0.00508889 1e-05
0.00611599 -0.00514747 1e-05
0.00615222 -0.00520605 1e-05
0.00618847 -0.00526462 1e-05
0.00622483 -0.00532325 1e-05
0.00630365 -0.00545013 1e-05
0.00638266 -0.00557689 1e-05
0.00646186 -0.00570352 1e-05
0.00654134 -0.00582998 1e-05
0.00661893 -0.00595263 1e-05
0.00666275 -0.00602144 1e-05
0.00670662 -0.00609022 1e-05
0.00675054 -0.00615897 1e-05
0.00679454 -0.00622766 1e-05
0.00683893 -0.00629671 1e-05
0.0069109 -0.00640829 1e-05
0.00698312 -0.0065197 1e-05
0.0070556 -0.00663095 1e-05
0.00712838 -0.006742 1e-05
0.00719878 -0.00684862 1e-05
0.00726933 -0.0069547 1e-05
0.0073401 -0.00706064 1e-05
0.0074111 -0.00716642 1e-05
0.00748241 -0.007272 1e-05
0.00755524 -0.00737908 1e-05
0.00760082 -0.00744561 1e-05
0.00764652 -0.00751206 1e-05
0.00769236 -0.00757842 1e-05
0.00773833 -0.00764469 1e-05
0.00778313 -0.00770894 1e-05
0.00790091 -0.00787696 1e-05
0.00801946 -0.00804445 1e-05
0.00813878 -0.00821138 1e-05
0.0082591 -0.00837759 1e-05
0.00837203 -0.00853155 1e-05
0.00837952 -0.00854161 1e-05
0.008387 -0.00855168 1e-05
0.00839449 -0.00856174 1e-05
0.00840199 -0.0085718 1e-05
0.00840951 -0.00858188 1e-05
0.00852071 -0.00873088 1e-05
0.00863274 -0.00887926 1e-05
0.00874561 -0.009027 1e-05
0.00885935 -0.00917407 1e-05
0.00896551 -0.00930946 1e-05
0.00902983 -0.00939043 1e-05
0.00909441 -0.00947119 1e-05
0.00915925 -0.00955174 1e-05
0.00922439 -0.00963205 1e-05
0.00929168 -0.00971437 1e-05
0.00934607 -0.00978037 1e-05
0.00940065 -0.0098462 1e-05
0.00945543 -0.00991187 1e-05
0.0095104 -0.00997738 1e-05
0.0095636 -0.0100404 1e-05
0.00968415 -0.0101821 1e-05
[...]
POINT_DATA 12278
 FIELD attributes 2
p 1 12278 float
177018 177100 177172 177235 177289 177334
108951 108969 108985 109000 109012 109022
87757.8 87767.3 87776.7 87785.8 87794.8 87803.2
79940.1 79946.4 79952.6 79958.7 79964.8 79970.7
77149.2 77158.4 77167.6 77176.8 77186.1 77195.3
77566.6 77580.2 77593.7 77607.3 77620.9 77634.4
81099.8 81112.2 81124.5 81136.6 81148.5 81160.2
90926.3 90946 90965 90983.3 91000.9 91017.8
117358 117391 117421 117450 117476 117499
215477 215287 215095 214901 214705 214507
177018 173412 169085 164507 162841 158909 155526 152876 144710 134669 129227 123798 119860 119249 118397 112351 106452 102331 101435 100568 99586.1 98603.9 97177.2 95708.9 93993.3 93626.8 93259.8 92892.2 92411.2 91913.5 89994 88190.1 86676.1 85888.7 85112 84426.2 83761.4 83111.6 82459.8 81625.9 81591 81562.1 81534 81506 81477.1 80944.4 80412.1 79880.3 79349 78923.9 78497.7 78088.5 77690.8 77315.2 76949.2 76599.3 76249 75925.2 75623.8 75322.7 75033.2 74743.5 74465 74202.2 73939.6 73685.9 73432.2 73182.1 72945.9 72709.9 72481 72252 72021.5 71802 71582.8 71369.2 71155.6 70937 70726.1 70515.5 70308.3 70101.4 69888.4 69676 69463.8 69251.9 69040.4 68825.2 68597.2 68369.6 68136.7 67901 67656.9 67404.3 67138.4 66858.1 66544.4 66232.2 65921.6 65608.6 65608.2 65607.7 65607.2 65606.8 65606.3 65215.2 64829.9 64450.2 64052.3 63572.5 63057 62547.3 61846.5 61073.4 60260.3 60011.8 59773.5 59546.1 59319.4 59133.9 58577.4 58018.7 57458 56985.1 56517.1 55912.6 55309.9 54770.2 54229.1 53843.6 53785.7 53727.8 53672.8 53625.4 53577.5 53024.4 52464.1 51946.1 51473.8 50927.4 50926.7 50925.9 50925.2 50924.6 50924.1 50496.8 50062 49659.3 49323.7 49054.6 48955.6 48856.2 48785.5 48716 48643.6 48455 48264 48071.3 47926.8 47794.6 47622 47453.5 47314 47172.4 47013.2 47006.7 47000.1 46993.6 46987.7 46982.1 46876.8 46764.6 46649.8 46536.5 46429.6 46394.1 46357.3 46317.8 46277.5 46233.7 46213.6 46193.2 46172.8 46151.5 46130.4 46105 46078.3 46041.2 45998.9 45957.4 45959.8 45961.9 45961.2 45960.4 45959.4 45948.1 45936.3 45924.2 45909.1 45893.9 45903.7 45912.7 45917.2 45921.2 45924.9 45924 45923.2 45922.3 45921.2 45920.2 45933.7 45947.3 45959.9 45970.6 45980.9 45991.1 46001.3 46011.1 46020.8 46030.6 46042.1 46053.5 46064.7 46075.7 46086.6 46105 46123.4 46141.9 46160.4 46179 46187.5 46196 46204.7 46213.8 46222.9 46245.5 46268.3 46291.6 46315.5 46339.2 46346.6 46354 46361.7 46369.9 46378.2 46401.4 46424.7 46448.8 46474.1 46498.8 46507.7 46516.6 46526.2 46536.4 46546.7 46566.3 46586.1 46606.5 46628.4 46649.6 46663.4 46677.4 46693 46709.2 46725.9 46737.4 46749 46760.8 46773.5 46785.9 46807.8 46829.9 46855.3 46881.5 46907.4 46908.5 46909.5 46910.9 46912.2 46913.6 46934.8 46956.2 46978 47001.9 47024.3 47033.8 47043.3 47054.2 47065.2 47076.6 47086.4 47096.1 47105.9 47116.4 47126.6 47143.8 47161.1 47180 47199.8 47219.2 47221.7 47224.3 47227.2 47230.1 47233 47247.4 47261.9 47276.4 47292.1 47307 47320.7 47334.8 47350.2 47365.8 47382.6 47382.7 47382.8 47383 47383.1 47383.3 47397.8 47412.5 47427.4 47443.2 47458.5 47470.5 47483.1 47496.7 47510.3 47523.4 47524 47524.6 47525.2 47525.9 47526.5 47538.3 47550.2 47562.1 47574.8 47587.3 47597.6 47607.9 47619.6 47631.7 47643.7 47647.7 47652.1 47656.7 47661.3 47666.1 47672 47677.9 47683.9 47690 47696.5 47705.3 47714.4 47724.1 47735 47745.4 47753 47761.1 47770 47778.9 47788.1 47790.2 47792.6 47795 47797.5 47800.1 47805.5 47810.9 47816.4 47821.9 47828 47834.2 47840.8 47847.6 47855.7 47863.5 47868.6 47873.6 47879.8 47886.5 47893.2 47896.8 47901.4 47906 47910.6 47915.9 47916.1 47916.4 47916.7 47917 47917.3 47921.4 47925.6 47929.7 47933.8 47938.8 47941.1 47943.7 47946.6 47950.5 47954.4 47955.5 47956.6 47958.5 47961.3 47963.9 47963.9 47964.4 47965.2 47966.1 47967.5 47966.7 47966.4 47966.1 47965.8 47965.4 47965.4 47965.4 47965.3 47965.3 47965.4 47964 47962.6 47961.3 47959.8 47959.1 47955.9 47953.3 47950.7 47948.5 47946.6 47942.3 47937.9 47934.2 47931.1 47928.1 47922.5 47917 47912 47907.8 47903.5 47896.8 47890.2 47884.1 47878.4 47872.9 47865.2 47857.8 47850.5 47843.3 47836.6 47827.8 47819.5 47811.1 47802.7 47794.6 47786 47777.6 47769.2 47760.8 47751 47750.2 47749.4 47748.6 47747.8 47747 47736.6 47726.1 47715.7 47705.2 47694.8 47683.1 47671.6 47660.1 47648.5 47637.2 47624.2 47611.8 47599.2 47586.7 47574.5 47560.5 47546.9 47533.4 47520 47506.7 47491.8 47477.1 47462.7 47448.3 47434.1 47418.3 47402.6 47387.3 47372.1 47356.9 47340.3 47323.8 47307.5 47291.4 47275.3 47258 47240.6 47223.4 47206.5 47189.6 47171.5 47153.3 47135.3 47117.5 47099.8 47081 47062.2 47043.3 47024.8 47006.3 46986.8 46967.3 46947.7 46928.4 46909.2 46889 46868.8 46848.6 46828.6 46808.6 46787.9 46767.1 46746.2 46725.5 46704.9 46683.6 46662.2 46640.8 46619.4 46598.2 46576.3 46554.4 46532.4 46510.4 46488.6 46466.3 46443.7 46421.2 46398.7 46376.4 46353.5 46330.5 46307.5 46284.5 46261.6 46238.3 46214.8 46191.3 46167.8 46144.5 46120.7 46096.8 46072.9 46049 46025.2 46001 45976.6 45952.3 45928 45903.7 45879.1 45854.4 45829.7 45805 45780.4 45755.4 45730.3 45705.3 45680.2 45655.2 45629.9 45604.5 45579.1 45553.7 45528.3 45502.6 45476.9 45451.2 45425.5 45399.8 45373.8 45347.8 45321.8 45295.7 45269.7 45243.5 45217.2 45190.9 45164.6 45138.3 45111.8 45085.2 45058.6 45032.1 45005.5 44978.7 44951.9 44925.1 44898.2 44871.4 44844.4 44817.3 44790.3 44763.2 44736.1 44708.9 44681.6 44654.3 44627 44599.7 44572.2 44544.7 44517.2 44489.7 44462.2 44434.5 44406.8 44379.1 44351.4 44323.7 44295.8 44267.8 44239.9 44212 44184.1 44156 44127.9 44099.8 44071.7 44043.6 44015.3 43987 43958.7 43930.4 43902.1 43873.6 43845.1 43816.7 43788.2 43759.7 43731.1 43702.4 43673.7 43645.1 43616.4 43587.6 43558.8 43529.9 43501.1 43472.2 43443.2 43414.2 43385.2 43356.2 43327.2 43298 43268.9 43239.7 43210.5 43181.3 43152 43122.6 43093.3 43063.9 43034.5 43005.1 42975.5 42946 42916.5 42886.9 42857.3 42827.6 42797.9 42768.2 42738.5 42708.6 42678.8 42648.9 42619 42589.2 42559.1 42529.1 42499.1 42469 42439 42408.8 42378.6 42348.4 42318.1 42287.9 42257.5 42227.2 42196.8 42166.4 42136 42105.4 42074.8 42044.3 42013.7 41983.1 41952.4 41921.6 41890.9 41860.1 41829.3 41798.4 41767.5 41736.6 41705.6 41674.7 41643.6 41612.4 41581.3 41550.2 41519 41487.8 41456.4 41425.1 41393.8 41362.4 41331 41299.5 41267.9 41236.4 41204.9 41173.2 41141.5 41109.8 41078.1 41046.3 41014.5 40982.5 40950.6 40918.7 40886.8 40854.7 40822.6 40790.4 40758.3 40726.1 40693.9 40661.5 40629.2 40596.9 40564.5 40532 40499.4 40466.9 40434.4 40401.8 40369 40336.3 40303.5 40270.8 40237.9 40205 40172 40139 40106 40073 40039.8 40006.6 39973.4 39940.2 39906.9 39873.6 39840.1 39806.7 39773.2 39739.7 39706.1 39672.4 39638.8 39605.1 39571.3 39537.5 39503.6 39469.7 39435.7 39401.8 39367.7 39333.5 39299.4 39265.2 39231 39196.6 39162.2 39127.8 39093.4 39059 39024.4 38989.7 38955.1 38920.4 38885.7 38850.9 38816 38781.1 38746.2 38711.2 38676.1 38640.9 38605.8 38570.6 38535.4 38500 38464.6 38429.2 38393.8 38358.3 38322.7 38287 38251.3 38215.6 38179.9 38144 38108 38072.1 38036.1 38000.1 37964 37927.8 37891.5 37855.3 37819 37782.6 37746.1 37709.6 37673.1 37636.5 37599.9 37563.1 37526.3 37489.5 37452.7 37415.7 37378.7 37341.7 37304.6 37267.5 37230.2 37192.9 37155.6 37118.2 37080.8 37043.3 37005.7 36968.1 36930.4 36892.7 36854.9 36817 36779.1 36741.2 36703.2 36665.1 36626.9 36588.7 36550.5 36512.2 36473.8 36435.3 36396.9 36358.3 36319.8 36281.1 36242.3 36203.5 36164.7 36125.8 36086.8 36047.8 36008.7 35969.6 35930.4 35891.1 35851.7 35812.4 35772.9 35733.5 35693.8 35654.2 35614.5 35574.8 35535 35495.1 35455.1 35415.1 35375.1 35335 35294.8 35254.5 35214.2 35173.8 35133.4 35092.9 35052.3 35011.7 34971 34930.3 34889.4 34848.6 34807.6 34766.6 34725.6 34684.4 34643.2 34602 34560.6 34519.3 34477.8 34436.3 34394.7 34353.1 34311.4 34269.6 34227.7 34185.8 34143.9 34101.9 34059.7 34017.6 33975.3 33933.1 33890.7 33848.3 33805.8 33763.2 33720.6 33678 33635.1 33592.3 33549.4 33506.5 33463.5 33420.4 33377.2 33334 33290.7 33247.4 33203.9 33160.4 33116.9 33073.2 33029.6 32985.8 32942 32898.1 32854.1 32810.1 32765.9 32721.8 32677.5 32633.2 32588.9 32544.4 32499.9 32455.3 32410.6 32366 32321.1 32276.3 32231.3 32186.3 32141.3 32096.1 32050.9 32005.6 31960.3 31914.9 31869.3 31823.8 31778.1 31732.4 31686.7 31640.8 31594.9 31548.9 31502.8 31456.8 31410.5 31364.2 31317.9 31271.5 31225 31178.4 31131.8 31085.1 31038.3 30991.5 30944.5 30897.5 30850.4 30803.3 30756.1 30708.7 30661.4 30613.9 30566.4 30518.9 30471.2 30423.4 30375.6 30327.7 30279.9 30231.8 30183.6 30135.5 30087.2 30038.9 29990.5 29942 29893.4 29844.8 29796.1 29747.3 29698.4 29649.5 29600.5 29551.4 29502.2 29452.9 29403.6 29354.2 29304.8 29255.2 29205.6 29155.8 29106.1 29056.3 29006.2 28956.2 28906.1 28855.9 28805.8 28755.3 28704.9 28654.4 28603.9 28553.3 28502.5 28451.6 28400.8 28349.8 28298.8 28247.6 28196.4 28145.1 28093.7 28042.3 27990.7 27939.1 27887.4 27835.6 27783.8 27731.7 27679.7 27627.6 27575.4 27523.2 27470.7 27418.3 27365.7 27313.1 27260.5 27207.6 27154.7 27101.8 27048.8 26995.7 26942.4 26889.1 26835.7 26782.3 26728.8 26675.1 26621.4 26567.6 26513.7 26459.8 26405.6 26351.5 26297.3 26243 26188.7 26134.1 26079.5 26024.9 25970.2 25915.5 25860.6 25805.6 25750.6 25695.5 25640.4 25585.1 25529.7 25474.4 25419 25363.6 25308 25252.3 25196.7 25141.1 25085.4 25029.6 24973.8 24918 24862.3 24806.6 24750.6 24694.9 24639.2 24583.5 24527.9 24472.1 24416.9 24361.7 24306.7 24252 24197.3 24142.3 24087.3 24032.3 23976.9 23922.2 23873.6 23824.9 23776.3 23732.5 23683.4 23618 23552.6 23487 23412.6 23361.4 23331 23300.9 23271.2 23256.9 23252.8 23248.6 23244.5 23240.3 23238.8 23236.1 23230.9 23225.6 23220.4 23214.6 23187.7 23160.5 23133 23105.3 23061.7 22985.8 22916.8 22847.9 22779.1 22722.8 22671.6 22615.3 22559 22502.6 22439.9 22372.2 22304.1 22236 22167.9 22099.4 22028.1 21954.9 21881.7 21808.4 21733.1 21654.9 21575.1 21495.3 21415.5 21334 21249.8 21163.6 21077.5 20991.3 20903.4 20812.4 20719.4 20626.5 20533.4 20438.6 20340.6 20240.3 20140 20039.6 19937.3 19831.4 19723.2 19614.9 19506.5 19396.1 19281.7 19164.7 19047.5 18930.1 18810.4 18686.4 18559.6 18432.7 18305.7 18176.3 18042.2 17904.2 17766.1 17627.7 17485.9 17338.9 17189.2 17039.4 16889.4 16737.1 16579.3 16414.8 16249.9 16084.6 15913.2 15735.4 15557.3 15379.1 15201 15022.9 14838.2 14638.7 14438.4 14237.3 14022.1 13798.8 13585.8 13373.3 13161.3 12960 12751.1 12503.6 12253.8 12002 11712.6 11412.5 11157.1 10904.7 10654.9 10450.1 10237.6 9921.59 9598.01 9265.85 8833.17 8384.18 8071.42 7773.81 7494.22 7349.12 7198.09 6801.62 6357.15 5838.91 5089.55 4311.27 3779.11 3398.2 3250.86 3316.6 3382.91 3361.98 2777.1 1388.14 0