# vtk DataFile Version 2.0
track0
ASCII
DATASET POLYDATA
POINTS 12298 float
-0.0205 0.001 1e-05
-0.02052 0.000999216 1e-05
-0.02054 0.000998592 1e-05
-0.02056 0.000998126 1e-05
-0.02058 0.000997818 1e-05
-0.0206 0.000997665 1e-05
-0.0205 0.00367778 1e-05
-0.02052 0.00367703 1e-05
-0.02054 0.00367643 1e-05
-0.02056 0.00367599 1e-05
-0.02058 0.00367569 1e-05
-0.0206 0.00367554 1e-05
-0.0205 0.00635556 1e-05
-0.02052 0.00635527 1e-05
-0.02054 0.00635505 1e-05
-0.02056 0.00635488 1e-05
-0.02058 0.00635476 1e-05
-0.0206 0.00635471 1e-05
-0.0205 0.00903333 1e-05
-0.02052 0.00903311 1e-05
-0.02054 0.00903293 1e-05
-0.02056 0.0090328 1e-05
-0.02058 0.00903271 1e-05
-0.0206 0.00903266 1e-05
-0.0205 0.0117111 1e-05
-0.02052 0.0117111 1e-05
-0.02054 0.011711 1e-05
-0.02056 0.011711 1e-05
-0.02058 0.011711 1e-05
-0.0206 0.011711 1e-05
-0.0205 0.0143889 1e-05
-0.02052 0.014389 1e-05
-0.02054 0.014389 1e-05
-0.02056 0.0143891 1e-05
-0.02058 0.0143891 1e-05
-0.0206 0.0143891 1e-05
-0.0205 0.0170667 1e-05
-0.02052 0.017067 1e-05
-0.02054 0.0170672 1e-05
-0.02056 0.0170674 1e-05
-0.02058 0.0170675 1e-05
-0.0206 0.0170676 1e-05
-0.0205 0.0197444 1e-05
-0.02052 0.019745 1e-05
-0.02054 0.0197454 1e-05
-0.02056 0.0197457 1e-05
-0.02058 0.0197459 1e-05
-0.0206 0.019746 1e-05
-0.0205 0.0224222 1e-05
-0.02052 0.022423 1e-05
-0.02054 0.0224236 1e-05
-0.02056 0.0224241 1e-05
-0.02058 0.0224244 1e-05
-0.0206 0.0224245 1e-05
-0.0205 0.0251 1e-05
-0.02052 0.0251003 1e-05
-0.02054 0.0251005 1e-05
-0.02056 0.0251007 1e-05
-0.02058 0.0251008 1e-05
-0.0206 0.0251008 1e-05
-0.0205 0.001 1e-05
-0.0203632 0.00100536 1e-05
-0.0202266 0.00101331 1e-05
-0.0200901 0.00102296 1e-05
-0.0200427 0.00102682 1e-05
-0.0198376 0.00104418 1e-05
-0.0196338 0.00107322 1e-05
-0.0194327 0.00111734 1e-05
-0.0192367 0.00118023 1e-05
-0.0190172 0.0012495 1e-05
-0.0189002 0.00128347 1e-05
-0.0187827 0.00131597 1e-05
-0.0186649 0.00134699 1e-05
-0.0185468 0.001377 1e-05
-0.0183806 0.00141936 1e-05
-0.018204 0.00146457 1e-05
-0.0180267 0.00150691 1e-05
-0.0178487 0.00154639 1e-05
-0.0176703 0.00158388 1e-05
-0.0174976 0.00161989 1e-05
-0.0172846 0.00166393 1e-05
-0.0170716 0.00170741 1e-05
-0.0168584 0.00175029 1e-05
-0.016645 0.0017922 1e-05
-0.0163948 0.00184007 1e-05
-0.0163236 0.00185326 1e-05
-0.0162523 0.00186633 1e-05
-0.0161811 0.00187927 1e-05
-0.0161098 0.0018921 1e-05
-0.0160387 0.0019047 1e-05
-0.0157586 0.00195365 1e-05
-0.0154779 0.00199952 1e-05
-0.0151968 0.00204252 1e-05
-0.0149154 0.00208318 1e-05
-0.0146381 0.00212178 1e-05
-0.0143852 0.00215562 1e-05
-0.0141321 0.00218795 1e-05
-0.0138788 0.00221881 1e-05
-0.0136254 0.00224824 1e-05
-0.0132934 0.00228481 1e-05
-0.0132814 0.00228604 1e-05
-0.0132693 0.00228727 1e-05
-0.0132573 0.0022885 1e-05
-0.0132452 0.00228973 1e-05
-0.0132329 0.00229098 1e-05
-0.0129868 0.00231589 1e-05
-0.0127406 0.00233955 1e-05
-0.0124943 0.00236195 1e-05
-0.0122479 0.00238306 1e-05
-0.0120025 0.00240276 1e-05
-0.0117547 0.00242152 1e-05
-0.0115067 0.00243897 1e-05
-0.0112587 0.00245529 1e-05
-0.0110106 0.00247062 1e-05
-0.0107632 0.00248495 1e-05
-0.0105252 0.00249784 1e-05
-0.0102872 0.00250975 1e-05
-0.0100491 0.00252067 1e-05
-0.00981105 0.00253078 1e-05
-0.00957337 0.00254015 1e-05
-0.00934491 0.00254846 1e-05
-0.00911643 0.00255603 1e-05
-0.00888792 0.00256285 1e-05
-0.00865939 0.00256892 1e-05
-0.00843108 0.00257438 1e-05
-0.00821175 0.00257905 1e-05
-0.00799241 0.00258311 1e-05
-0.00777306 0.00258657 1e-05
-0.0075537 0.00258934 1e-05
-0.00733443 0.00259154 1e-05
-0.00712387 0.00259311 1e-05
-0.0069133 0.00259414 1e-05
-0.00670272 0.00259463 1e-05
-0.00649215 0.00259446 1e-05
-0.0062816 0.00259368 1e-05
-0.00607944 0.00259236 1e-05
-0.00587729 0.00259051 1e-05
-0.00567515 0.00258811 1e-05
-0.00547302 0.002585 1e-05
-0.00527083 0.00258118 1e-05
-0.00507675 0.00257685 1e-05
-0.00488269 0.00257191 1e-05
-0.00468864 0.00256637 1e-05
-0.00449462 0.00256 1e-05
-0.00430044 0.00255273 1e-05
-0.00411412 0.0025449 1e-05
-0.00392783 0.0025363 1e-05
-0.00374158 0.00252694 1e-05
-0.00355538 0.00251659 1e-05
-0.00336883 0.00250503 1e-05
-0.00318995 0.0024928 1e-05
-0.00301115 0.00247951 1e-05
-0.00283242 0.00246516 1e-05
-0.00265381 0.00244955 1e-05
-0.00247443 0.0024323 1e-05
-0.0023027 0.00241421 1e-05
-0.00213113 0.00239462 1e-05
-0.00195978 0.00237324 1e-05
-0.00178867 0.00235001 1e-05
-0.00161577 0.00232465 1e-05
-0.00157334 0.00231792 1e-05
-0.00153092 0.00231104 1e-05
-0.00148854 0.00230399 1e-05
-0.00144618 0.00229676 1e-05
-0.00141317 0.00229098 1e-05
-0.00128882 0.00226879 1e-05
-0.00116471 0.00224528 1e-05
-0.00104086 0.00222049 1e-05
-0.000917258 0.00219443 1e-05
-0.000791418 0.00216643 1e-05
-0.000633135 0.00212894 1e-05
-0.000475552 0.00208861 1e-05
-0.000318709 0.00204549 1e-05
-0.00016278 0.00199918 1e-05
0 0.00194665 1e-05
5.78324e-05 0.0019264 1e-05
0.000115422 0.00190547 1e-05
0.000172768 0.00188389 1e-05
0.000229873 0.00186167 1e-05
0.000271163 0.00184508 1e-05
0.000322608 0.00182392 1e-05
0.000373815 0.0018022 1e-05
0.000424778 0.00177991 1e-05
0.00047549 0.00175706 1e-05
0.000528387 0.00173256 1e-05
0.000634886 0.00168182 1e-05
0.000740252 0.00162877 1e-05
0.000844424 0.00157341 1e-05
0.000947412 0.00151589 1e-05
0.00106088 0.00144935 1e-05
0.00106532 0.00144661 1e-05
0.00106976 0.00144386 1e-05
0.00107419 0.00144111 1e-05
0.00107862 0.00143835 1e-05
0.00108298 0.00143563 1e-05
0.00118589 0.00137139 1e-05
0.00128734 0.00130487 1e-05
0.00138725 0.00123606 1e-05
0.00148563 0.00116507 1e-05
0.00159752 0.00108093 1e-05
0.00160646 0.00107387 1e-05
0.0016154 0.00106679 1e-05
0.00162431 0.0010597 1e-05
0.00163322 0.00105258 1e-05
0.0016419 0.00104563 1e-05
0.00173361 0.000971871 1e-05
0.00182381 0.000896276 1e-05
0.00191242 0.000818811 1e-05
0.00199956 0.000739709 1e-05
0.00206682 0.00067659 1e-05
0.00208112 0.000662802 1e-05
0.00209537 0.000648963 1e-05
0.00210958 0.000635073 1e-05
0.00212374 0.000621146 1e-05
0.00213833 0.000606737 1e-05
0.00219437 0.000551059 1e-05
0.00224976 0.000494731 1e-05
0.00230447 0.000437742 1e-05
0.00235847 0.000380084 1e-05
0.00240606 0.000328302 1e-05
0.00246151 0.000266912 1e-05
0.00251624 0.000204872 1e-05
0.00257025 0.000142206 1e-05
0.00262364 7.90137e-05 1e-05
0.00268334 6.89599e-06 1e-05
0.00268445 5.51679e-06 1e-05
0.00268557 4.13732e-06 1e-05
0.00268668 2.75757e-06 1e-05
0.00268779 1.37756e-06 1e-05
0.0026889 0 1e-05
0.00274833 -7.37206e-05 1e-05
0.00280702 -0.000148024 1e-05
0.00286496 -0.00022292 1e-05
0.00292211 -0.000298419 1e-05
0.00297416 -0.00036857 1e-05
0.00302585 -0.00043952 1e-05
0.00307695 -0.000510892 1e-05
0.00312747 -0.000582675 1e-05
0.00317748 -0.000654818 1e-05
0.00323259 -0.000735586 1e-05
0.00323851 -0.000744422 1e-05
0.00324442 -0.000753264 1e-05
0.00325032 -0.000762112 1e-05
0.00325621 -0.000770966 1e-05
0.00326205 -0.000779764 1e-05
0.00332283 -0.000871465 1e-05
0.00338284 -0.000963668 1e-05
0.00344209 -0.00105636 1e-05
0.00350054 -0.00114956 1e-05
0.00355522 -0.00123819 1e-05
0.0036014 -0.00131424 1e-05
0.00364714 -0.00139055 1e-05
0.00369246 -0.00146712 1e-05
0.00373741 -0.00154391 1e-05
0.00378611 -0.00162801 1e-05
0.00379994 -0.0016522 1e-05
0.00381373 -0.00167642 1e-05
0.00382747 -0.00170066 1e-05
0.00384116 -0.00172493 1e-05
0.00385466 -0.00174896 1e-05
0.00391838 -0.00186275 1e-05
0.0039813 -0.00197699 1e-05
0.00404345 -0.00209165 1e-05
0.00410488 -0.00220669 1e-05
0.00416348 -0.00231781 1e-05
0.00419957 -0.0023871 1e-05
0.00423544 -0.0024565 1e-05
0.0042711 -0.00252602 1e-05
0.0043066 -0.00259561 1e-05
0.00434393 -0.00266918 1e-05
0.00437237 -0.00272557 1e-05
0.00440065 -0.00278204 1e-05
0.00442879 -0.00283858 1e-05
0.00445678 -0.0028952 1e-05
0.00448427 -0.00295112 1e-05
0.00455325 -0.00309211 1e-05
0.00462153 -0.00323345 1e-05
0.00468908 -0.00337513 1e-05
0.00475607 -0.00351709 1e-05
0.00482116 -0.00365598 1e-05
0.00483814 -0.00369248 1e-05
0.0048551 -0.00372898 1e-05
0.00487203 -0.0037655 1e-05
0.00488895 -0.00380203 1e-05
0.00490609 -0.00383905 1e-05
0.00496171 -0.00395932 1e-05
0.00501704 -0.00407972 1e-05
0.00507206 -0.00420026 1e-05
0.00512678 -0.00432094 1e-05
0.00518074 -0.00444033 1e-05
0.00523911 -0.00456986 1e-05
0.0052973 -0.00469947 1e-05
0.00535528 -0.00482917 1e-05
0.00541324 -0.00495888 1e-05
0.00547262 -0.00509173 1e-05
0.0054924 -0.00513598 1e-05
0.00551215 -0.00518024 1e-05
0.00553188 -0.00522451 1e-05
0.00555159 -0.00526879 1e-05
0.00557126 -0.00531297 1e-05
0.0056577 -0.00550711 1e-05
0.00574407 -0.00570127 1e-05
0.00583037 -0.00589547 1e-05
0.00591688 -0.00608957 1e-05
0.00600391 -0.00628366 1e-05
0.00601184 -0.00630123 1e-05
0.00601977 -0.00631879 1e-05
0.00602771 -0.00633635 1e-05
0.00603565 -0.00635391 1e-05
0.00604356 -0.00637138 1e-05
0.00613345 -0.00656974 1e-05
0.00622376 -0.00676791 1e-05
0.0063145 -0.00696588 1e-05
0.00640583 -0.00716359 1e-05
0.00649917 -0.00736328 1e-05
0.00652312 -0.00741389 1e-05
0.00654713 -0.00746447 1e-05
0.00657119 -0.00751503 1e-05
0.00659531 -0.00756556 1e-05
0.00661893 -0.00761485 1e-05
0.00671023 -0.0078046 1e-05
0.00680231 -0.00799397 1e-05
0.0068952 -0.00818294 1e-05
0.0069891 -0.00837142 1e-05
0.00708647 -0.00856375 1e-05
0.00710893 -0.00860738 1e-05
0.00713146 -0.00865098 1e-05
0.00715404 -0.00869455 1e-05
0.00717669 -0.00873808 1e-05
0.00719878 -0.00878034 1e-05
0.00729463 -0.00896302 1e-05
0.00739164 -0.00914509 1e-05
0.00748983 -0.00932652 1e-05
0.00758936 -0.00950722 1e-05
0.0076942 -0.00969394 1e-05
0.00771198 -0.00972498 1e-05
0.00772981 -0.009756 1e-05
0.00774769 -0.00978699 1e-05
0.0077656 -0.00981796 1e-05
0.00778313 -0.00984816 1e-05
0.00789678 -0.0100432 1e-05
0.0080122 -0.0102373 1e-05
0.00812942 -0.0104303 1e-05
0.0082486 -0.010622 1e-05
0.00837203 -0.0108159 1e-05
0.00837307 -0.0108175 1e-05
0.00837411 -0.0108191 1e-05
0.00837515 -0.0108207 1e-05
0.00837619 -0.0108223 1e-05
0.00837723 -0.0108239 1e-05
0.00849489 -0.011004 1e-05
0.00861443 -0.0111829 1e-05
0.00873589 -0.0113605 1e-05
0.00885932 -0.0115367 1e-05
0.00896551 -0.0116847 1e-05
0.00900498 -0.0117385 1e-05
[...]
POINT_DATA 12298
 FIELD attributes 1
U 3 12298 float
9.7234 	0.381304 	0 9.77872 	0.305043 	0 9.83406 	0.228761 	0 9.8894 	0.152462 	0 9.94476 	0.0761517 	0 10 	0 	0
10.0671 	0.375467 	0 10.0537 	0.300373 	0 10.0403 	0.225261 	0 10.0268 	0.150135 	0 10.0134 	0.0749976 	0 10 	0 	0
10.0363 	0.141719 	0 10.029 	0.113421 	0 10.0217 	0.0851765 	0 10.0144 	0.0569842 	0 10.0071 	0.0288447 	0 10 	0 	0
10.0137 	0.111775 	0 10.0109 	0.0894199 	0 10.0082 	0.0670644 	0 10.0055 	0.0447085 	0 10.0027 	0.0223524 	0 10 	0 	0
10.0097 	0.0200046 	0 10.0078 	0.0160037 	0 10.0058 	0.0120028 	0 10.0039 	0.00800183 	0 10.0019 	0.0040009 	0 10 	0 	0
10.0102 	-0.0369699 	0 10.0082 	-0.0295759 	0 10.0061 	-0.0221819 	0 10.0041 	-0.0147879 	0 10.002 	-0.00739388 	0 10 	0 	0
10.0174 	-0.148862 	0 10.0139 	-0.119089 	0 10.0105 	-0.0893159 	0 10.007 	-0.0595415 	0 10.0035 	-0.0297663 	0 10 	0 	0
10.0362 	-0.265888 	0 10.029 	-0.21271 	0 10.0217 	-0.159526 	0 10.0145 	-0.106337 	0 10.0072 	-0.0531433 	0 10 	0 	0
10.0563 	-0.387193 	0 10.045 	-0.309754 	0 10.0338 	-0.232295 	0 10.0225 	-0.15482 	0 10.0112 	-0.0773332 	0 10 	0 	0
8.30132 	-0.114497 	0 8.42869 	-0.0915973 	0 8.55659 	-0.0686971 	0 8.68497 	-0.0457964 	0 8.81385 	-0.0228952 	0 8.94315 	0 	0
9.7234 	0.381304 	0 9.54152 	0.555233 	0 9.39674 	0.663643 	0 9.26208 	0.754265 	0 9.21836 	0.780378 	0 8.95352 	1.27611 	0 8.70587 	1.9103 	0 8.48184 	2.72171 	0 8.46736 	2.67115 	0 8.47266 	2.45979 	0 8.50133 	2.35307 	0 8.52516 	2.24423 	0 8.51239 	2.16304 	0 8.42499 	2.14733 	0 8.30218 	2.12556 	0 8.30123 	1.9821 	0 8.28722 	1.83802 	0 8.21188 	1.72577 	0 8.03498 	1.67523 	0 7.86297 	1.62597 	0 7.68307 	1.56789 	0 7.50154 	1.50913 	0 7.42753 	1.45889 	0 7.36094 	1.40834 	0 7.27802 	1.34755 	0 7.22178 	1.32462 	0 7.16534 	1.30159 	0 7.1087 	1.27844 	0 7.07835 	1.25535 	0 7.05188 	1.2322 	0 6.97268 	1.13959 	0 6.88692 	1.05359 	0 6.7971 	0.981929 	0 6.70978 	0.933983 	0 6.62031 	0.885859 	0 6.54852 	0.83649 	0 6.48981 	0.790846 	0 6.43989 	0.747725 	0 6.38614 	0.703591 	0 6.31249 	0.646011 	0 6.31065 	0.644263 	0 6.3093 	0.642747 	0 6.30803 	0.641265 	0 6.30675 	0.639781 	0 6.30544 	0.638264 	0 6.26728 	0.602417 	0 6.22666 	0.566236 	0 6.18355 	0.529716 	0 6.13793 	0.492865 	0 6.10212 	0.461891 	0 6.06812 	0.427028 	0 6.03691 	0.397163 	0 6.0076 	0.371126 	0 5.98458 	0.346782 	0 5.96255 	0.322965 	0 5.94114 	0.297294 	0 5.91773 	0.271412 	0 5.90067 	0.250544 	0 5.88967 	0.232194 	0 5.87725 	0.21378 	0 5.86376 	0.19421 	0 5.84879 	0.174538 	0 5.83904 	0.155239 	0 5.83507 	0.139595 	0 5.82989 	0.12392 	0 5.82266 	0.107838 	0 5.81436 	0.0916667 	0 5.81128 	0.07351 	0 5.81259 	0.058294 	0 5.81312 	0.0432621 	0 5.81108 	0.0285812 	0 5.80887 	0.0134159 	0 5.8113 	-0.00476923 	0 5.81727 	-0.0214993 	0 5.82283 	-0.0379704 	0 5.82572 	-0.0533333 	0 5.82824 	-0.0692221 	0 5.83585 	-0.0899014 	0 5.84723 	-0.110324 	0 5.85761 	-0.130673 	0 5.86568 	-0.14922 	0 5.87252 	-0.16771 	0 5.88533 	-0.193356 	0 5.90225 	-0.220993 	0 5.91737 	-0.248508 	0 5.93115 	-0.273763 	0 5.94334 	-0.298889 	0 5.96056 	-0.331232 	0 5.98238 	-0.370844 	0 6.00179 	-0.41024 	0 6.02152 	-0.44751 	0 6.03938 	-0.484867 	0 6.06236 	-0.530069 	0 6.08605 	-0.585178 	0 6.10768 	-0.643187 	0 6.1318 	-0.70025 	0 6.15858 	-0.768346 	0 6.18349 	-0.839428 	0 6.20466 	-0.91003 	0 6.22218 	-0.987564 	0 6.22783 	-1.00978 	0 6.23405 	-1.03748 	0 6.23998 	-1.0655 	0 6.24554 	-1.09347 	0 6.24961 	-1.11524 	0 6.26031 	-1.18557 	0 6.26814 	-1.25477 	0 6.27313 	-1.32285 	0 6.2776 	-1.39681 	0 6.28472 	-1.48838 	0 6.29959 	-1.61229 	0 6.3083 	-1.73421 	0 6.29221 	-1.86887 	1.08134e-20 6.25093 	-2.01721 	3.59507e-20 6.20011 	-2.17074 	6.45495e-20 6.18631 	-2.24827 	-2.96739e-20 6.16607 	-2.32093 	-5.66055e-20 6.1393 	-2.38859 	-1.44963e-20 6.11121 	-2.45565 	2.92023e-20 6.08985 	-2.50391 	6.20864e-20 6.06802 	-2.57403 	1.43279e-19 6.04514 	-2.64383 	2.26907e-19 6.02121 	-2.71332 	3.12957e-19 5.98577 	-2.77284 	2.12868e-19 5.94425 	-2.83182 	5.02514e-20 5.86414 	-2.95242 	3.62181e-20 5.77935 	-3.07124 	2.34891e-20 5.68403 	-3.17506 	-1.77906e-21 5.58263 	-3.27334 	-2.97181e-20 5.46308 	-3.37771 	-5.39902e-20 5.4583 	-3.38186 	-6.09961e-20 5.4535 	-3.38601 	-6.79986e-20 5.44876 	-3.38943 	-6.6263e-20 5.44403 	-3.39265 	-6.20388e-20 5.43936 	-3.39581 	-5.78683e-20 5.32217 	-3.48938 	-4.07828e-20 5.20035 	-3.58182 	-2.26273e-20 5.07655 	-3.66352 	-1.01999e-20 4.95373 	-3.72489 	-1.04089e-20 4.80753 	-3.79423 	-9.72638e-21 4.79517 	-3.80029 	-5.98912e-21 4.78277 	-3.80634 	-2.24984e-21 4.77083 	-3.81144 	2.0314e-21 4.7596 	-3.81513 	7.12966e-21 4.74861 	-3.81871 	1.21079e-20 4.62281 	-3.87408 	7.52612e-21 4.49312 	-3.92832 	1.81104e-21 4.3685 	-3.96526 	1.62818e-21 4.24879 	-3.98745 	4.20273e-21 4.1525 	-4.00367 	6.44005e-21 4.12988 	-4.01021 	1.05769e-20 4.10715 	-4.01669 	1.46782e-20 4.08824 	-4.01882 	6.96272e-21 4.06925 	-4.02092 	-7.42811e-22 4.04956 	-4.02305 	-8.68435e-21 3.96796 	-4.03527 	-6.76677e-20 3.88496 	-4.04683 	-1.26134e-19 3.80051 	-4.05771 	-1.84063e-19 3.72768 	-4.05626 	-1.13175e-19 3.66226 	-4.05412 	-4.57075e-20 3.58238 	-4.06111 	5.24943e-21 3.50296 	-4.06437 	4.24343e-20 3.42807 	-4.05727 	3.53034e-20 3.35201 	-4.04964 	2.8512e-20 3.2646 	-4.04038 	2.12235e-20 3.26287 	-4.04027 	2.1557e-20 3.26114 	-4.04016 	2.18905e-20 3.25941 	-4.04004 	2.22241e-20 3.25776 	-4.0398 	2.25108e-20 3.25616 	-4.03948 	2.27702e-20 3.18476 	-4.03174 	1.54739e-20 3.11171 	-4.02255 	8.5214e-21 3.03738 	-4.01258 	1.56476e-21 2.9624 	-3.99221 	5.59415e-21 2.89229 	-3.97041 	1.19678e-20 2.83727 	-3.96288 	4.13567e-20 2.78182 	-3.95247 	5.58168e-20 2.72687 	-3.93392 	2.18726e-20 2.6712 	-3.91495 	-1.19391e-20 2.60836 	-3.89332 	-4.94484e-20 2.60119 	-3.89136 	-5.17847e-20 2.59402 	-3.88939 	-5.41212e-20 2.58683 	-3.88741 	-5.6458e-20 2.57968 	-3.88472 	-5.88211e-20 2.57261 	-3.8817 	-6.11811e-20 2.51502 	-3.86418 	-1.001e-19 2.45608 	-3.84263 	-1.28807e-19 2.39622 	-3.82036 	-1.57188e-19 2.33732 	-3.78822 	-1.0107e-19 2.2809 	-3.75666 	-4.28565e-20 2.24319 	-3.74254 	3.10003e-20 2.20551 	-3.72671 	8.84034e-20 2.16935 	-3.70525 	8.13591e-20 2.13281 	-3.68352 	7.45646e-20 2.09246 	-3.65946 	6.74237e-20 2.07965 	-3.65306 	8.07922e-20 2.06679 	-3.64663 	9.41416e-20 2.05389 	-3.64016 	1.07472e-19 2.04136 	-3.63226 	1.02223e-19 2.02908 	-3.62387 	8.98308e-20 1.98294 	-3.60018 	5.56666e-20 1.93703 	-3.57364 	2.38711e-20 1.89192 	-3.54329 	-2.80359e-21 1.8492 	-3.50636 	-1.6518e-20 1.80757 	-3.47034 	-2.97079e-20 1.78653 	-3.45648 	-2.77393e-20 1.7657 	-3.44196 	-2.80829e-20 1.74701 	-3.42428 	-4.25401e-20 1.72819 	-3.40649 	-5.69653e-20 1.70817 	-3.38759 	-7.21638e-20 1.68993 	-3.37335 	-1.07661e-19 1.67158 	-3.35902 	-1.43003e-19 1.65312 	-3.34457 	-1.78188e-19 1.63608 	-3.32773 	-1.443e-19 1.61955 	-3.31049 	-9.47282e-20 1.58512 	-3.28112 	-5.60214e-20 1.55021 	-3.25131 	-1.72188e-20 1.51832 	-3.21746 	1.94823e-20 1.49011 	-3.17979 	6.05315e-20 1.46272 	-3.14243 	1.0169e-19 1.45662 	-3.13564 	1.20039e-19 1.45054 	-3.12879 	1.37321e-19 1.44576 	-3.12099 	1.21323e-19 1.44098 	-3.11317 	1.05335e-19 1.43612 	-3.10525 	8.91406e-20 1.41471 	-3.07868 	7.18411e-20 1.39315 	-3.05194 	5.46349e-20 1.37143 	-3.02502 	3.75249e-20 1.35357 	-2.99466 	8.02409e-20 1.33605 	-2.9644 	1.25728e-19 1.31975 	-2.94009 	1.97891e-19 1.30335 	-2.91567 	2.70075e-19 1.29105 	-2.88872 	2.24312e-19 1.27896 	-2.86164 	1.7238e-19 1.26658 	-2.8339 	1.19187e-19 1.26058 	-2.82431 	1.55255e-19 1.25457 	-2.81471 	1.91277e-19 1.2486 	-2.80508 	2.24264e-19 1.24404 	-2.79451 	1.5573e-19 1.23949 	-2.78396 	8.73408e-20 1.22228 	-2.74782 	-8.24648e-20 1.20505 	-2.71164 	-2.52283e-19 1.19168 	-2.67365 	-2.49588e-19 1.18133 	-2.6347 	-1.40867e-19 1.17212 	-2.59584 	-1.87209e-20 1.17141 	-2.59306 	-1.36036e-20 1.1707 	-2.59028 	-8.48567e-21 1.17033 	-2.5874 	-5.2097e-21 1.1701 	-2.58447 	-2.73437e-21 1.16988 	-2.58156 	-2.70363e-22 1.16005 	-2.54552 	1.03409e-19 1.15036 	-2.50966 	2.07479e-19 1.14248 	-2.47339 	2.54435e-19 1.13867 	-2.43598 	1.6816e-19 1.13514 	-2.39849 	8.1026e-20 1.13451 	-2.39069 	7.41619e-20 1.13391 	-2.38292 	6.73012e-20 1.13405 	-2.3753 	6.39755e-20 1.13491 	-2.36783 	6.3962e-20 1.13578 	-2.36057 	6.39619e-20 1.13176 	-2.32751 	3.84323e-20 1.12799 	-2.29473 	1.28197e-20 1.12727 	-2.26268 	8.47728e-22 1.12967 	-2.23144 	2.54629e-21 1.13253 	-2.1999 	4.29371e-21 1.13292 	-2.19305 	4.2945e-21 1.13334 	-2.18623 	4.296e-21 1.13424 	-2.17959 	7.32705e-21 1.13563 	-2.17315 	1.34258e-20 1.137 	-2.16692 	1.93599e-20 1.13742 	-2.13479 	1.20256e-19 1.13818 	-2.10301 	2.22183e-19 1.14144 	-2.0724 	2.31185e-19 1.14706 	-2.04293 	1.55937e-19 1.15338 	-2.01283 	7.81927e-20 1.15439 	-2.00824 	7.38758e-20 1.15541 	-2.00368 	6.95623e-20 1.1566 	-1.99916 	6.86519e-20 1.15806 	-1.99472 	7.34549e-20 1.15951 	-1.99041 	7.81548e-20 1.16453 	-1.958 	4.79941e-20 1.17007 	-1.9261 	1.73645e-20 1.17787 	-1.8952 	4.30259e-20 1.1872 	-1.86513 	9.95326e-20 1.19746 	-1.8352 	1.57607e-19 1.19752 	-1.83492 	1.59776e-19 1.19757 	-1.83464 	1.61946e-19 1.19765 	-1.83437 	1.61219e-19 1.19772 	-1.83409 	1.59627e-19 1.1978 	-1.83382 	1.58035e-19 1.20613 	-1.80492 	3.36549e-21 1.21506 	-1.77655 	-1.50575e-19 1.22495 	-1.74891 	-2.41014e-19 1.23656 	-1.72245 	-1.34019e-19 1.24695 	-1.70055 	-4.14438e-20 1.24989 	-1.69137 	-4.89105e-20 1.2529 	-1.68224 	-5.6356e-20 1.25636 	-1.67341 	-5.56799e-20 1.25992 	-1.66466 	-5.41208e-20 1.26365 	-1.65572 	-5.24774e-20 1.27062 	-1.63966 	-3.47019e-20 1.27784 	-1.62381 	-1.68674e-20 1.28531 	-1.6082 	7.75174e-27 1.29327 	-1.59338 	1.43408e-25 1.30071 	-1.58013 	2.66823e-25 1.30942 	-1.55915 	2.31023e-25 1.31852 	-1.53851 	-1.2662e-21 1.32824 	-1.51899 	-3.55467e-20 1.33834 	-1.4998 	-6.99564e-20 1.34975 	-1.47927 	-1.07531e-19 1.35106 	-1.47709 	-1.12833e-19 1.35237 	-1.47492 	-1.18136e-19 1.35369 	-1.47276 	-1.2344e-19 1.35498 	-1.4707 	-1.19138e-19 1.35625 	-1.46869 	-1.13163e-19 1.36698 	-1.44692 	-7.78981e-20 1.37871 	-1.42595 	-5.35704e-20 1.39091 	-1.40544 	-3.11407e-20 1.40314 	-1.38644 	-3.3503e-20 1.41436 	-1.37 	-3.60679e-20 1.42269 	-1.35497 	-3.27452e-21 1.43115 	-1.34037 	2.20453e-20 1.43953 	-1.32657 	2.81167e-20 1.44815 	-1.31295 	3.41352e-20 1.4578 	-1.29829 	4.06468e-20 1.46083 	-1.29398 	4.66183e-20 1.46389 	-1.28969 	5.25714e-20 1.46697 	-1.28542 	5.85062e-20 1.4699 	-1.28138 	5.09337e-20 1.47269 	-1.27758 	3.57553e-20 1.48384 	-1.2589 	2.37758e-20 1.49587 	-1.24107 	1.55443e-20 1.50837 	-1.22368 	8.354e-21 1.52012 	-1.20799 	1.30924e-20 1.53115 	-1.19397 	1.75119e-20 1.54306 	-1.17622 	7.10061e-20 1.55471 	-1.15945 	9.01203e-20 1.56611 	-1.14366 	7.46374e-20 1.57785 	-1.12815 	5.95421e-20 1.58956 	-1.11355 	4.11112e-20 1.59006 	-1.11289 	4.30149e-20 1.59052 	-1.11227 	4.33318e-20 1.59096 	-1.11166 	4.25978e-20 1.5914 	-1.11106 	4.18643e-20 1.59184 	-1.11045 	4.11269e-20 1.60286 	-1.09577 	3.50535e-20 1.6142 	-1.08132 	2.90654e-20 1.62585 	-1.0671 	2.31631e-20 1.63715 	-1.05374 	1.72852e-20 1.64706 	-1.04232 	1.17644e-20 1.65883 	-1.02684 	-1.2677e-19 1.67095 	-1.0116 	-2.66036e-19 1.68231 	-0.997826 	-2.57349e-19 1.6935 	-0.98541 	-1.16651e-19 1.70432 	-0.973911 	1.64412e-20 1.7161 	-0.959807 	8.46348e-20 1.72673 	-0.94714 	1.04065e-19 1.73722 	-0.934995 	1.10146e-19 1.74797 	-0.923024 	1.16441e-19 1.76077 	-0.909309 	1.24006e-19 1.76093 	-0.909145 	1.24371e-19 1.76109 	-0.908982 	1.24737e-19 1.76126 	-0.908818 	1.25102e-19 1.76141 	-0.908658 	1.25375e-19 1.76155 	-0.908521 	1.24994e-19 1.77261 	-0.896007 	1.24779e-19 1.78395 	-0.883697 	1.23734e-19 1.79556 	-0.871567 	1.22538e-19 1.80712 	-0.859891 	1.16507e-19 1.81653 	-0.85042 	8.38974e-20 1.8281 	-0.837573 	1.17645e-19 1.83994 	-0.824949 	1.49012e-19 1.85156 	-0.813566 	1.35692e-19 1.86141 	-0.80392 	7.82618e-20 1.87112 	-0.794749 	2.26769e-20 1.8832 	-0.782347 	1.6361e-20 1.89515 	-0.770404 	1.16204e-20 1.9052 	-0.760228 	1.5692e-20 1.91537 	-0.75053 	1.96756e-20 1.92533 	-0.741641 	2.34521e-20 1.93764 	-0.729828 	8.90808e-20 1.94775 	-0.719909 	8.83379e-20 1.95809 	-0.710113 	8.77702e-20 1.96864 	-0.70044 	8.73763e-20 1.97911 	-0.691171 	8.37295e-20 1.97973 	-0.690613 	8.64003e-20 1.98024 	-0.690134 	8.60595e-20 1.98074 	-0.689655 	8.5719e-20 1.98125 	-0.689177 	8.53789e-20 1.98176 	-0.688694 	8.50358e-20 1.9915 	-0.679623 	7.85344e-20 2.00143 	-0.670654 	7.21411e-20 2.01155 	-0.661787 	6.5855e-20 2.02186 	-0.653022 	5.96754e-20 2.02982 	-0.646167 	6.94982e-20 2.04082 	-0.636071 	4.92314e-20 2.05152 	-0.626821 	3.49797e-20 2.06233 	-0.617799 	2.17857e-20 2.07158 	-0.610071 	3.15128e-20 2.0795 	-0.603465 	5.84289e-20 2.0908 	-0.593736 	1.02949e-19 2.10232 	-0.58411 	1.47509e-19 2.11248 	-0.575848 	1.42938e-19 2.12036 	-0.569319 	9.40034e-20 2.12827 	-0.562958 	4.57138e-20 2.13982 	-0.553589 	3.11703e-20 2.15158 	-0.544316 	1.65453e-20 2.16029 	-0.537128 	-7.79977e-21 2.16822 	-0.530759 	-1.96356e-20 2.17607 	-0.524635 	-2.94482e-20 2.18783 	-0.51562 	-9.1282e-20 2.19768 	-0.507921 	-1.17129e-19 2.20633 	-0.501089 	-1.19782e-19 2.21509 	-0.494353 	-1.20205e-19 2.22284 	-0.48846 	-7.09537e-20 2.23402 	-0.4802 	-5.58677e-20 2.24253 	-0.473592 	-4.08235e-20 2.25119 	-0.467043 	-2.57272e-20 2.26 	-0.460551 	-1.05794e-20 2.2685 	-0.454384 	-4.61054e-21 2.27295 	-0.451182 	-1.07931e-20 2.27657 	-0.448446 	1.27475e-21 2.28022 	-0.44572 	1.33105e-20 2.28389 	-0.443004 	2.53143e-20 2.2879 	-0.440073 	3.82816e-20 2.29279 	-0.436562 	5.61413e-20 2.29773 	-0.433068 	7.39242e-20 2.30271 	-0.429591 	9.16306e-20 2.30774 	-0.42613 	1.09261e-19 2.31167 	-0.423314 	8.32967e-20 2.32057 	-0.416893 	9.28073e-20 2.32907 	-0.410845 	8.10912e-20 2.3377 	-0.404844 	6.9261e-20 2.34646 	-0.398892 	5.73178e-20 2.35221 	-0.394645 	-7.41298e-21 2.3621 	-0.387989 	-1.35376e-19 2.3705 	-0.382201 	-1.57537e-19 2.37904 	-0.376456 	-1.79456e-19 2.38672 	-0.371244 	-1.61751e-19 2.3914 	-0.367634 	-2.02282e-20 2.40141 	-0.361234 	5.17122e-20 2.41062 	-0.35529 	9.56442e-20 2.41903 	-0.349794 	1.11722e-19 2.42478 	-0.345657 	7.33045e-20 2.42922 	-0.34222 	8.02202e-21 2.43924 	-0.336104 	3.9986e-21 2.44938 	-0.330041 	2.82607e-23 2.45736 	-0.324915 	-6.2928e-22 2.46148 	-0.321612 	-1.02121e-20 2.46566 	-0.318342 	-1.97519e-20 2.47567 	-0.312504 	-1.16198e-20 2.48582 	-0.306701 	-3.46827e-21 2.49295 	-0.302176 	0 2.49679 	-0.29904 	0 2.50069 	-0.295931 	0 2.51067 	-0.290362 	0 2.52079 	-0.284825 	0 2.52715 	-0.280849 	-8.89741e-21 2.53071 	-0.277873 	-2.66414e-20 2.53432 	-0.27492 	-4.434e-20 2.54425 	-0.269611 	-9.75328e-20 2.55383 	-0.264515 	-1.44753e-19 2.55951 	-0.260993 	-1.41253e-19 2.56324 	-0.25804 	-9.74527e-20 2.56655 	-0.255237 	-4.4376e-20 2.57641 	-0.250182 	-2.66188e-20 2.58454 	-0.245829 	-1.2691e-20 2.59005 	-0.242487 	-4.37844e-21 2.59438 	-0.239472 	-4.06638e-21 2.59738 	-0.236813 	-1.24339e-20 2.60715 	-0.232003 	-7.41554e-20 2.61387 	-0.228313 	-9.0885e-20 2.61921 	-0.225144 	-8.68966e-20 2.62413 	-0.222099 	-7.25377e-20 2.62683 	-0.219579 	-9.90733e-21 2.6365 	-0.215007 	-7.17488e-20 2.64185 	-0.211905 	-7.17505e-20 2.64701 	-0.208903 	-6.80919e-20 2.65225 	-0.205913 	-6.44954e-20 2.65492 	-0.203468 	-1.52773e-20 2.66359 	-0.199395 	-5.92655e-20 2.6685 	-0.196542 	-6.5155e-20 2.67347 	-0.1937 	-7.10966e-20 2.67852 	-0.190868 	-7.70901e-20 2.68165 	-0.188412 	-4.99714e-20 2.68912 	-0.184864 	-7.51997e-20 2.69383 	-0.182164 	-7.28157e-20 2.69862 	-0.179475 	-7.0473e-20 2.70347 	-0.176795 	-6.81713e-20 2.70705 	-0.174349 	-4.44262e-20 2.71337 	-0.171266 	-6.5659e-21 2.71789 	-0.168714 	-9.85712e-22 2.72248 	-0.166171 	4.65323e-21 2.72714 	-0.163636 	1.03506e-20 2.73116 	-0.161217 	-1.90802e-21 2.73637 	-0.158548 	7.34876e-21 2.7407 	-0.156136 	1.661e-20 2.7451 	-0.153733 	2.58656e-20 2.74955 	-0.151337 	3.51158e-20 2.754 	-0.148959 	4.45164e-20 2.75451 	-0.148702 	4.32296e-20 2.75493 	-0.148466 	4.35616e-20 2.75535 	-0.14823 	4.3893e-20 2.75578 	-0.147994 	4.42238e-20 2.75621 	-0.147754 	4.45605e-20 2.7599 	-0.145708 	4.85335e-20 2.76365 	-0.143668 	5.24421e-20 2.76744 	-0.141633 	5.62866e-20 2.77128 	-0.139603 	6.00671e-20 2.77443 	-0.137765 	4.56095e-20 2.77888 	-0.135522 	2.7029e-20 2.78284 	-0.133371 	9.12066e-21 2.78685 	-0.131226 	-8.78837e-21 2.79092 	-0.129086 	-2.66981e-20 2.79356 	-0.12731 	-4.185e-20 2.7984 	-0.125114 	-6.26008e-20 2.80216 	-0.123085 	-6.41894e-20 2.80598 	-0.121061 	-6.57478e-20 2.80984 	-0.119043 	-6.72761e-20 2.81159 	-0.117526 	-4.27498e-20 2.8168 	-0.115386 	-3.6272e-20 2.82037 	-0.113473 	-3.5812e-20 2.82399 	-0.111565 	-3.53615e-20 2.82766 	-0.109661 	-3.49204e-20 2.82856 	-0.108369 	-3.44893e-20 2.83411 	-0.106295 	9.08484e-21 2.83749 	-0.104492 	1.13045e-20 2.84092 	-0.102694 	1.34796e-20 2.84439 	-0.100899 	1.56104e-20 2.84451 	-0.0998008 	-3.52093e-20 2.85037 	-0.0977993 	-2.66993e-20 2.85357 	-0.0961016 	-8.858e-21 2.85681 	-0.0944074 	8.98372e-21 2.86009 	-0.0927168 	2.68258e-20 2.85947 	-0.0917845 	3.3895e-20 2.86563 	-0.0898604 	2.99415e-20 2.86864 	-0.0882622 	2.95727e-20 2.8717 	-0.0866671 	2.92117e-20 2.87479 	-0.0850751 	2.88586e-20 2.8735 	-0.0842851 	3.65737e-20 2.87992 	-0.0824421 	2.74783e-20 2.88275 	-0.0809383 	1.83912e-20 2.88562 	-0.0794372 	9.30757e-21 2.88853 	-0.0779388 	2.27499e-22 2.88661 	-0.0772698 	8.84914e-21 2.89323 	-0.0755133 	7.58941e-23 2.89592 	-0.074096 	1.74065e-20 2.89862 	-0.072684 	3.4972e-20 2.90107 	-0.0713187 	5.35563e-20 2.89885 	-0.0707077 	8.92762e-20 2.90535 	-0.0690611 	5.35456e-20 2.9082 	-0.0677036 	4.98809e-20 2.91072 	-0.0663761 	4.93468e-20 2.91264 	-0.0651467 	5.23231e-20 2.91026 	-0.0645698 	7.89717e-20 2.91664 	-0.0630275 	5.20675e-20 2.91962 	-0.0617316 	3.25916e-20 2.92198 	-0.0604841 	1.45388e-20 2.9234 	-0.0593743 	0 2.92086 	-0.0588292 	0 2.92713 	-0.0573859 	0 2.93022 	-0.0561525 	-1.96945e-23 2.93241 	-0.0549807 	-4.50879e-23 2.93339 	-0.053976 	2.20867e-21 2.93069 	-0.0534608 	1.11841e-20 2.93685 	-0.0521113 	7.36136e-20 2.94003 	-0.0509407 	9.17103e-20 2.94207 	-0.0498406 	9.24739e-20 2.94263 	-0.0489283 	7.40032e-20 2.9398 	-0.048441 	1.18226e-20 2.94583 	-0.0471804 	2.9851e-21 2.94908 	-0.0460723 	4.35562e-23 2.95097 	-0.0450401 	1.7134e-23 2.95116 	-0.044209 	3.14352e-21 2.9482 	-0.0437478 	1.20879e-20 2.95412 	-0.0425713 	3.29301e-21 2.95742 	-0.0415251 	1.65068e-20 2.95916 	-0.0405571 	4.28956e-20 2.95902 	-0.0397975 	7.28077e-20 2.95593 	-0.0393607 	1.08185e-19 2.96174 	-0.0382639 	1.43512e-19 2.96507 	-0.0372785 	1.58146e-19 2.96668 	-0.0363713 	1.58278e-19 2.96623 	-0.0356746 	1.35569e-19 2.96302 	-0.0352607 	8.21269e-20 2.96872 	-0.0342392 	6.41585e-20 2.97207 	-0.0333132 	3.64077e-20 2.97354 	-0.0324635 	8.42002e-22 2.97283 	-0.0318223 	-3.06343e-20 2.9695 	-0.0314299 	-5.72279e-20 2.9751 	-0.0304797 	4.00374e-20 2.97844 	-0.0296115 	8.60687e-20 2.97978 	-0.0288161 	8.6495e-20 2.97884 	-0.028224 	4.84902e-20 2.97541 	-0.0278517 	-3.10919e-20 2.9809 	-0.026969 	4.8446e-20 2.98422 	-0.0261566 	9.67174e-20 2.98544 	-0.0254126 	1.14606e-19 2.98429 	-0.0248641 	1.01483e-19 2.98076 	-0.0245108 	5.73725e-20 2.98615 	-0.0236917 	1.01451e-19 2.98943 	-0.0229332 	1.32607e-19 2.99053 	-0.0222378 	1.50306e-19 2.98921 	-0.021728 	1.40676e-19 2.9856 	-0.0213925 	1.05372e-19 2.99087 	-0.0206336 	7.00829e-20 2.99411 	-0.0199269 	4.73651e-20 2.9951 	-0.0192774 	3.84326e-20 2.99362 	-0.0188022 	4.80704e-20 2.98993 	-0.0184836 	7.43845e-20 2.99511 	-0.0177815 	4.80319e-20 2.99828 	-0.0171243 	2.16744e-20 2.99916 	-0.0165182 	-4.68915e-21 2.99756 	-0.0160741 	-1.22667e-20 2.99379 	-0.0157713 	-3.46001e-21 2.99887 	-0.0151228 	5.78733e-20 3.00196 	-0.0145129 	9.89587e-20 3.00274 	-0.0139478 	1.16575e-19 3.00104 	-0.0135318 	9.17802e-20 2.9972 	-0.013244 	3.05227e-20 3.00219 	-0.012646 	-1.18138e-19 3.00519 	-0.0120812 	-1.94141e-19 3.00587 	-0.0115548 	-1.8547e-19 3.00409 	-0.0111644 	-1.06285e-19 3.00019 	-0.0108907 	3.35248e-20 3.00508 	-0.0103404 	3.35445e-20 3.00798 	-0.00981825 	2.94942e-20 3.00857 	-0.00932852 	2.07392e-20 3.00673 	-0.00896139 	3.05424e-20 3.00277 	-0.00870109 	5.65189e-20 3.00758 	-0.00819578 	2.39308e-19 3.01037 	-0.00771402