# vtk DataFile Version 2.0
track0
ASCII
DATASET POLYDATA
POINTS 12298 float
-0.0205 0.001 1e-05
-0.02052 0.000999216 1e-05
-0.02054 0.000998592 1e-05
-0.02056 0.000998126 1e-05
-0.02058 0.000997818 1e-05
-0.0206 0.000997665 1e-05
-0.0205 0.00367778 1e-05
-0.02052 0.00367703 1e-05
-0.02054 0.00367643 1e-05
-0.02056 0.00367599 1e-05
-0.02058 0.00367569 1e-05
-0.0206 0.00367554 1e-05
-0.0205 0.00635556 1e-05
-0.02052 0.00635527 1e-05
-0.02054 0.00635505 1e-05
-0.02056 0.00635488 1e-05
-0.02058 0.00635476 1e-05
-0.0206 0.00635471 1e-05
-0.0205 0.00903333 1e-05
-0.02052 0.00903311 1e-05
-0.02054 0.00903293 1e-05
-0.02056 0.0090328 1e-05
-0.02058 0.00903271 1e-05
-0.0206 0.00903266 1e-05
-0.0205 0.0117111 1e-05
-0.02052 0.0117111 1e-05
-0.02054 0.011711 1e-05
-0.02056 0.011711 1e-05
-0.02058 0.011711 1e-05
-0.0206 0.011711 1e-05
-0.0205 0.0143889 1e-05
-0.02052 0.014389 1e-05
-0.02054 0.014389 1e-05
-0.02056 0.0143891 1e-05
-0.02058 0.0143891 1e-05
-0.0206 0.0143891 1e-05
-0.0205 0.0170667 1e-05
-0.02052 0.017067 1e-05
-0.02054 0.0170672 1e-05
-0.02056 0.0170674 1e-05
-0.02058 0.0170675 1e-05
-0.0206 0.0170676 1e-05
-0.0205 0.0197444 1e-05
-0.02052 0.019745 1e-05
-0.02054 0.0197454 1e-05
-0.02056 0.0197457 1e-05
-0.02058 0.0197459 1e-05
-0.0206 0.019746 1e-05
-0.0205 0.0224222 1e-05
-0.02052 0.022423 1e-05
-0.02054 0.0224236 1e-05
-0.02056 0.0224241 1e-05
-0.02058 0.0224244 1e-05
-0.0206 0.0224245 1e-05
-0.0205 0.0251 1e-05
-0.02052 0.0251003 1e-05
-0.02054 0.0251005 1e-05
-0.02056 0.0251007 1e-05
-0.02058 0.0251008 1e-05
-0.0206 0.0251008 1e-05
-0.0205 0.001 1e-05
-0.0203632 0.00100536 1e-05
-0.0202266 0.00101331 1e-05
-0.0200901 0.00102296 1e-05
-0.0200427 0.00102682 1e-05
-0.0198376 0.00104418 1e-05
-0.0196338 0.00107322 1e-05
-0.0194327 0.00111734 1e-05
-0.0192367 0.00118023 1e-05
-0.0190172 0.0012495 1e-05
-0.0189002 0.00128347 1e-05
-0.0187827 0.00131597 1e-05
-0.0186649 0.00134699 1e-05
-0.0185468 0.001377 1e-05
-0.0183806 0.00141936 1e-05
-0.018204 0.00146457 1e-05
-0.0180267 0.00150691 1e-05
-0.0178487 0.00154639 1e-05
-0.0176703 0.00158388 1e-05
-0.0174976 0.00161989 1e-05
-0.0172846 0.00166393 1e-05
-0.0170716 0.00170741 1e-05
-0.0168584 0.00175029 1e-05
-0.016645 0.0017922 1e-05
-0.0163948 0.00184007 1e-05
-0.0163236 0.00185326 1e-05
-0.0162523 0.00186633 1e-05
-0.0161811 0.00187927 1e-05
-0.0161098 0.0018921 1e-05
-0.0160387 0.0019047 1e-05
-0.0157586 0.00195365 1e-05
-0.0154779 0.00199952 1e-05
-0.0151968 0.00204252 1e-05
-0.0149154 0.00208318 1e-05
-0.0146381 0.00212178 1e-05
-0.0143852 0.00215562 1e-05
-0.0141321 0.00218795 1e-05
-0.0138788 0.00221881 1e-05
-0.0136254 0.00224824 1e-05
-0.0132934 0.00228481 1e-05
-0.0132814 0.00228604 1e-05
-0.0132693 0.00228727 1e-05
-0.0132573 0.0022885 1e-05
-0.0132452 0.00228973 1e-05
-0.0132329 0.00229098 1e-05
-0.0129868 0.00231589 1e-05
-0.0127406 0.00233955 1e-05
-0.0124943 0.00236195 1e-05
-0.0122479 0.00238306 1e-05
-0.0120025 0.00240276 1e-05
-0.0117547 0.00242152 1e-05
-0.0115067 0.00243897 1e-05
-0.0112587 0.00245529 1e-05
-0.0110106 0.00247062 1e-05
-0.0107632 0.00248495 1e-05
-0.0105252 0.00249784 1e-05
-0.0102872 0.00250975 1e-05
-0.0100491 0.00252067 1e-05
-0.00981105 0.00253078 1e-05
-0.00957337 0.00254015 1e-05
-0.00934491 0.00254846 1e-05
-0.00911643 0.00255603 1e-05
-0.00888792 0.00256285 1e-05
-0.00865939 0.00256892 1e-05
-0.00843108 0.00257438 1e-05
-0.00821175 0.00257905 1e-05
-0.00799241 0.00258311 1e-05
-0.00777306 0.00258657 1e-05
-0.0075537 0.00258934 1e-05
-0.00733443 0.00259154 1e-05
-0.00712387 0.00259311 1e-05
-0.0069133 0.00259414 1e-05
-0.00670272 0.00259463 1e-05
-0.00649215 0.00259446 1e-05
-0.0062816 0.00259368 1e-05
-0.00607944 0.00259236 1e-05
-0.00587729 0.00259051 1e-05
-0.00567515 0.00258811 1e-05
-0.00547302 0.002585 1e-05
-0.00527083 0.00258118 1e-05
-0.00507675 0.00257685 1e-05
-0.00488269 0.00257191 1e-05
-0.00468864 0.00256637 1e-05
-0.00449462 0.00256 1e-05
-0.00430044 0.00255273 1e-05
-0.00411412 0.0025449 1e-05
-0.00392783 0.0025363 1e-05
-0.00374158 0.00252694 1e-05
-0.00355538 0.00251659 1e-05
-0.00336883 0.00250503 1e-05
-0.00318995 0.0024928 1e-05
-0.00301115 0.00247951 1e-05
-0.00283242 0.00246516 1e-05
-0.00265381 0.00244955 1e-05
-0.00247443 0.0024323 1e-05
-0.0023027 0.00241421 1e-05
-0.00213113 0.00239462 1e-05
-0.00195978 0.00237324 1e-05
-0.00178867 0.00235001 1e-05
-0.00161577 0.00232465 1e-05
-0.00157334 0.00231792 1e-05
-0.00153092 0.00231104 1e-05
-0.00148854 0.00230399 1e-05
-0.00144618 0.00229676 1e-05
-0.00141317 0.00229098 1e-05
-0.00128882 0.00226879 1e-05
-0.00116471 0.00224528 1e-05
-0.00104086 0.00222049 1e-05
-0.000917258 0.00219443 1e-05
-0.000791418 0.00216643 1e-05
-0.000633135 0.00212894 1e-05
-0.000475552 0.00208861 1e-05
-0.000318709 0.00204549 1e-05
-0.00016278 0.00199918 1e-05
0 0.00194665 1e-05
5.78324e-05 0.0019264 1e-05
0.000115422 0.00190547 1e-05
0.000172768 0.00188389 1e-05
0.000229873 0.00186167 1e-05
0.000271163 0.00184508 1e-05
0.000322608 0.00182392 1e-05
0.000373815 0.0018022 1e-05
0.000424778 0.00177991 1e-05
0.00047549 0.00175706 1e-05
0.000528387 0.00173256 1e-05
0.000634886 0.00168182 1e-05
0.000740252 0.00162877 1e-05
0.000844424 0.00157341 1e-05
0.000947412 0.00151589 1e-05
0.00106088 0.00144935 1e-05
0.00106532 0.00144661 1e-05
0.00106976 0.00144386 1e-05
0.00107419 0.00144111 1e-05
0.00107862 0.00143835 1e-05
0.00108298 0.00143563 1e-05
0.00118589 0.00137139 1e-05
0.00128734 0.00130487 1e-05
0.00138725 0.00123606 1e-05
0.00148563 0.00116507 1e-05
0.00159752 0.00108093 1e-05
0.00160646 0.00107387 1e-05
0.0016154 0.00106679 1e-05
0.00162431 0.0010597 1e-05
0.00163322 0.00105258 1e-05
0.0016419 0.00104563 1e-05
0.00173361 0.000971871 1e-05
0.00182381 0.000896276 1e-05
0.00191242 0.000818811 1e-05
0.00199956 0.000739709 1e-05
0.00206682 0.00067659 1e-05
0.00208112 0.000662802 1e-05
0.00209537 0.000648963 1e-05
0.00210958 0.000635073 1e-05
0.00212374 0.000621146 1e-05
0.00213833 0.000606737 1e-05
0.00219437 0.000551059 1e-05
0.00224976 0.000494731 1e-05
0.00230447 0.000437742 1e-05
0.00235847 0.000380084 1e-05
0.00240606 0.000328302 1e-05
0.00246151 0.000266912 1e-05
0.00251624 0.000204872 1e-05
0.00257025 0.000142206 1e-05
0.00262364 7.90137e-05 1e-05
0.00268334 6.89599e-06 1e-05
0.00268445 5.51679e-06 1e-05
0.00268557 4.13732e-06 1e-05
0.00268668 2.75757e-06 1e-05
0.00268779 1.37756e-06 1e-05
0.0026889 0 1e-05
0.00274833 -7.37206e-05 1e-05
0.00280702 -0.000148024 1e-05
0.00286496 -0.00022292 1e-05
0.00292211 -0.000298419 1e-05
0.00297416 -0.00036857 1e-05
0.00302585 -0.00043952 1e-05
0.00307695 -0.000510892 1e-05
0.00312747 -0.000582675 1e-05
0.00317748 -0.000654818 1e-05
0.00323259 -0.000735586 1e-05
0.00323851 -0.000744422 1e-05
0.00324442 -0.000753264 1e-05
0.00325032 -0.000762112 1e-05
0.00325621 -0.000770966 1e-05
0.00326205 -0.000779764 1e-05
0.00332283 -0.000871465 1e-05
0.00338284 -0.000963668 1e-05
0.00344209 -0.00105636 1e-05
0.00350054 -0.00114956 1e-05
0.00355522 -0.00123819 1e-05
0.0036014 -0.00131424 1e-05
0.00364714 -0.00139055 1e-05
0.00369246 -0.00146712 1e-05
0.00373741 -0.00154391 1e-05
0.00378611 -0.00162801 1e-05
0.00379994 -0.0016522 1e-05
0.00381373 -0.00167642 1e-05
0.00382747 -0.00170066 1e-05
0.00384116 -0.00172493 1e-05
0.00385466 -0.00174896 1e-05
0.00391838 -0.00186275 1e-05
0.0039813 -0.00197699 1e-05
0.00404345 -0.00209165 1e-05
0.00410488 -0.00220669 1e-05
0.00416348 -0.00231781 1e-05
0.00419957 -0.0023871 1e-05
0.00423544 -0.0024565 1e-05
0.0042711 -0.00252602 1e-05
0.0043066 -0.00259561 1e-05
0.00434393 -0.00266918 1e-05
0.00437237 -0.00272557 1e-05
0.00440065 -0.00278204 1e-05
0.00442879 -0.00283858 1e-05
0.00445678 -0.0028952 1e-05
0.00448427 -0.00295112 1e-05
0.00455325 -0.00309211 1e-05
0.00462153 -0.00323345 1e-05
0.00468908 -0.00337513 1e-05
0.00475607 -0.00351709 1e-05
0.00482116 -0.00365598 1e-05
0.00483814 -0.00369248 1e-05
0.0048551 -0.00372898 1e-05
0.00487203 -0.0037655 1e-05
0.00488895 -0.00380203 1e-05
0.00490609 -0.00383905 1e-05
0.00496171 -0.00395932 1e-05
0.00501704 -0.00407972 1e-05
0.00507206 -0.00420026 1e-05
0.00512678 -0.00432094 1e-05
0.00518074 -0.00444033 1e-05
0.00523911 -0.00456986 1e-05
0.0052973 -0.00469947 1e-05
0.00535528 -0.00482917 1e-05
0.00541324 -0.00495888 1e-05
0.00547262 -0.00509173 1e-05
0.0054924 -0.00513598 1e-05
0.00551215 -0.00518024 1e-05
0.00553188 -0.00522451 1e-05
0.00555159 -0.00526879 1e-05
0.00557126 -0.00531297 1e-05
0.0056577 -0.00550711 1e-05
0.00574407 -0.00570127 1e-05
0.00583037 -0.00589547 1e-05
0.00591688 -0.00608957 1e-05
0.00600391 -0.00628366 1e-05
0.00601184 -0.00630123 1e-05
0.00601977 -0.00631879 1e-05
0.00602771 -0.00633635 1e-05
0.00603565 -0.00635391 1e-05
0.00604356 -0.00637138 1e-05
0.00613345 -0.00656974 1e-05
0.00622376 -0.00676791 1e-05
0.0063145 -0.00696588 1e-05
0.00640583 -0.00716359 1e-05
0.00649917 -0.00736328 1e-05
0.00652312 -0.00741389 1e-05
0.00654713 -0.00746447 1e-05
0.00657119 -0.00751503 1e-05
0.00659531 -0.00756556 1e-05
0.00661893 -0.00761485 1e-05
0.00671023 -0.0078046 1e-05
0.00680231 -0.00799397 1e-05
0.0068952 -0.00818294 1e-05
0.0069891 -0.00837142 1e-05
0.00708647 -0.00856375 1e-05
0.00710893 -0.00860738 1e-05
0.00713146 -0.00865098 1e-05
0.00715404 -0.00869455 1e-05
0.00717669 -0.00873808 1e-05
0.00719878 -0.00878034 1e-05
0.00729463 -0.00896302 1e-05
0.00739164 -0.00914509 1e-05
0.00748983 -0.00932652 1e-05
0.00758936 -0.00950722 1e-05
0.0076942 -0.00969394 1e-05
0.00771198 -0.00972498 1e-05
0.00772981 -0.009756 1e-05
0.00774769 -0.00978699 1e-05
0.0077656 -0.00981796 1e-05
0.00778313 -0.00984816 1e-05
0.00789678 -0.0100432 1e-05
0.0080122 -0.0102373 1e-05
0.00812942 -0.0104303 1e-05
0.0082486 -0.010622 1e-05
0.00837203 -0.0108159 1e-05
0.00837307 -0.0108175 1e-05
0.00837411 -0.0108191 1e-05
0.00837515 -0.0108207 1e-05
0.00837619 -0.0108223 1e-05
0.00837723 -0.0108239 1e-05
0.00849489 -0.011004 1e-05
0.00861443 -0.0111829 1e-05
0.00873589 -0.0113605 1e-05
0.00885932 -0.0115367 1e-05
0.00896551 -0.0116847 1e-05
0.00900498 -0.0117385 1e-05
[...]
POINT_DATA 12298
 FIELD attributes 2
p 1 12298 float
182199 182281 182353 182417 182470 182515
114137 114156 114172 114186 114198 114209
92955.9 92965.5 92974.8 92984 92993 93001.4
85144.6 85150.9 85157.1 85163.2 85169.3 85175.2
82354.9 82364.1 82373.3 82382.5 82391.7 82400.9
82772.5 82786.1 82799.7 82813.3 82826.8 82840.4
86309.3 86321.7 86334 86346 86358 86369.7
96143.9 96163.6 96182.6 96200.9 96218.5 96235.4
122585 122617 122648 122676 122702 122726
220706 220516 220324 220130 219934 219736
182199 178593 174266 169687 168021 164088 160705 158054 149889 139848 134404 128974 125035 124424 123571 117527 111628 107507 106610 105742 104758 103775 102348 100879 99164.3 98797 98429.2 98060.9 97579.3 97081.3 95161.8 93356.3 91842.4 91051.8 90271.8 89586.7 88923.5 88276.3 87627.1 86777.2 86747.8 86723.4 86699.8 86676.1 86651.9 86112.8 85574.2 85035.9 84498.4 84067.5 83638.6 83226.2 82826.3 82450.2 82083.2 81732.2 81380.8 81055 80751.7 80448.8 80157.4 79865.8 79585.1 79320.9 79057 78802 78546.9 78295.5 78057.3 77820.1 77590 77359.7 77128.5 76906.9 76687 76472.7 76257.9 76038.2 75826.7 75616 75409 75202.2 74986.6 74775.2 74564.1 74353.4 74143.2 73925.4 73700 73475 73245.2 73015.7 72776.1 72520.5 72259.8 71986.4 71687.9 71382.8 71079.2 70762.2 70672 70564.6 70456.1 70347.7 70263.3 69980.5 69700.8 69424.1 69130.5 68784.6 68289.3 67799.6 67181.2 66422.5 65628.5 65252.1 64892.3 64549.2 64207.6 63960.6 63556 63150.2 62743.5 62404.2 62069.6 61478.4 60884.8 60340.4 59808.9 59225.1 59204.7 59184.3 59165.7 59147.6 59129.8 58605.4 58074.2 57567.1 57115.9 56589.5 56549.8 56510 56473.2 56441.2 56409.8 55990.1 55563.7 55185.3 54850.9 54584.9 54511.7 54438.4 54386.7 54334.8 54281.1 54074.3 53864.6 53652.1 53489.3 53344 53165.4 52993.1 52846.4 52697.5 52526.4 52523 52519.7 52516.4 52513.3 52510.4 52392.8 52270.6 52145.6 52020.6 51903.7 51846.5 51786.9 51723.3 51658.4 51584.5 51575.4 51566.3 51557.2 51547.8 51538.3 51491.6 51438.4 51383.4 51320.6 51259.4 51245.9 51230.3 51209.2 51187.5 51162.9 51153 51143 51132.9 51121.9 51110.6 51095 51077.7 51057.8 51032.7 51007.8 51009.3 51010.1 51008.4 51006.4 51004.1 50997 50989.7 50982.2 50973.6 50964.7 50964.8 50964.2 50961.2 50958.6 50956 50959.3 50962.5 50965.1 50967.8 50970.5 50970.7 50970.8 50970.6 50969.7 50968.7 50976.7 50984.6 50991.9 50999.2 51006.7 51006.7 51006.6 51006.6 51006.7 51006.8 51016.3 51025.7 51035.7 51046.9 51059.2 51060.9 51062.5 51064.2 51065.9 51067.6 51077.9 51088.2 51099.4 51112 51125.2 51129.6 51134 51138.7 51143.7 51148.6 51158.7 51169.1 51181.3 51195.5 51210.3 51214.2 51218 51222.2 51226.7 51231.1 51242.6 51254.4 51268.1 51283.5 51299.9 51303 51306 51309.2 51312.6 51315.9 51330.8 51346 51363 51381.2 51400.3 51400.4 51400.5 51400.6 51400.7 51400.9 51416.9 51433.2 51450.3 51469.3 51485.7 51489.9 51494.1 51499.1 51504.1 51509.3 51519.9 51530.7 51541.6 51553.6 51564.7 51575.7 51586.9 51599.7 51612.7 51626.9 51628.6 51630.4 51632.1 51633.9 51635.8 51648.7 51662.3 51676.2 51691.8 51705.6 51713.4 51721.5 51730.6 51739.7 51749.7 51753 51756.2 51759.5 51763 51766.6 51777.1 51788.3 51799.8 51812.8 51824.6 51833.4 51842.9 51853.2 51863.5 51873.5 51873.8 51874.1 51874.4 51874.8 51875.1 51883.9 51892.8 51901.6 51911 51920.6 51927.4 51934.2 51942.1 51951.1 51959.6 51964.6 51970.6 51976.8 51983.1 51990.3 51990.4 51990.5 51990.6 51990.7 51990.8 51996.2 52001.7 52007.1 52012.7 52019.1 52022.3 52025.4 52029.5 52034.6 52039.5 52041.2 52042.9 52045.7 52048.8 52052.2 52052.5 52053.7 52055 52056.1 52057.3 52057.2 52057.2 52057.2 52057.2 52057.2 52057.2 52057.2 52057.2 52057.1 52057.8 52055.5 52053.8 52052.3 52051.2 52050.6 52046.8 52043 52040 52037.8 52035.7 52030.4 52025.1 52020.6 52016.8 52013.1 52006.4 52000.2 51994.2 51988.3 51983.1 51975.1 51967.7 51960.3 51952.9 51945.6 51941.7 51937.9 51934.1 51930.3 51926.2 51921.3 51916.4 51911.5 51906.6 51901.8 51891.5 51881.5 51871.3 51861.2 51851.5 51839.4 51828 51816.5 51805.1 51794.1 51780.7 51767.5 51754.7 51742.2 51729.8 51715.1 51700.4 51686.4 51672.6 51658.9 51643 51627.1 51611.6 51596.6 51581.6 51564.6 51547.5 51530.7 51514.4 51498.1 51480 51461.8 51443.8 51426.2 51408.7 51389.5 51370.3 51351.2 51332.3 51313.7 51293.4 51273.2 51253 51232.9 51213.2 51192 51170.8 51149.6 51128.4 51107.6 51085.4 51063.3 51041.1 51018.9 50997 50974 50950.9 50927.8 50904.7 50881.7 50857.8 50833.9 50809.9 50785.9 50762 50737.2 50712.4 50687.6 50662.8 50638 50635.4 50632.8 50630.1 50627.5 50624.8 50601.9 50579 50556 50533.1 50510.2 50483.8 50457.5 50431.2 50404.9 50378.5 50351.4 50324.4 50297.3 50270.3 50243.2 50215.4 50187.7 50160 50132.2 50104.4 50075.9 50047.6 50019.3 49990.9 49962.4 49933.3 49904.4 49875.5 49846.5 49817.4 49787.7 49758.2 49728.7 49699.2 49669.4 49639.3 49609.2 49579.2 49549.1 49518.8 49488.1 49457.6 49427.1 49396.5 49365.6 49334.5 49303.5 49272.5 49241.4 49210.1 49178.5 49147 49115.5 49084 49052.2 49020.3 48988.3 48956.4 48924.5 48892.3 48859.9 48827.6 48795.3 48762.9 48730.3 48697.6 48664.9 48632.2 48599.4 48566.5 48533.4 48500.4 48467.3 48434.2 48400.8 48367.5 48334.1 48300.7 48267.2 48233.6 48199.9 48166.2 48132.5 48098.7 48064.7 48030.8 47996.8 47962.8 47928.7 47894.4 47860.2 47826 47791.7 47757.3 47722.7 47688.3 47653.8 47619.2 47584.6 47549.8 47515 47480.3 47445.5 47410.6 47375.5 47340.6 47305.6 47270.6 47235.5 47200.2 47165 47129.8 47094.6 47059.2 47023.7 46988.3 46952.9 46917.5 46881.9 46846.2 46810.7 46775.1 46739.4 46703.7 46667.8 46632 46596.2 46560.4 46524.5 46488.4 46452.5 46416.5 46380.5 46344.4 46308.1 46272 46235.9 46199.7 46163.4 46127 46090.8 46054.5 46018.2 45981.7 45945.2 45908.8 45872.3 45835.8 45799.3 45762.6 45726 45689.4 45652.8 45616.1 45579.2 45542.5 45505.8 45469 45432.2 45395.2 45358.4 45321.5 45284.6 45247.6 45210.5 45173.6 45136.6 45099.5 45062.4 45025.2 44988.1 44951 44913.8 44876.6 44839.3 44802.1 44764.8 44727.5 44690.2 44652.7 44615.4 44578.1 44540.7 44503.2 44465.6 44428.2 44390.7 44353.2 44315.7 44278 44240.4 44202.8 44165.2 44127.6 44089.8 44052.1 44014.4 43976.7 43938.9 43901 43863.3 43825.5 43787.6 43749.8 43711.8 43673.9 43636 43598.1 43560.1 43522 43484 43446 43407.9 43369.9 43331.7 43293.6 43255.5 43217.3 43179.2 43140.9 43102.7 43064.4 43026.2 42987.9 42949.5 42911.2 42872.9 42834.5 42796.1 42757.7 42719.3 42680.8 42642.3 42603.9 42565.3 42526.8 42488.2 42449.6 42411.1 42372.4 42333.8 42295.1 42256.4 42217.7 42179 42140.2 42101.5 42062.7 42023.9 41985 41946.2 41907.3 41868.4 41829.5 41790.5 41751.6 41712.6 41673.6 41634.5 41595.5 41556.4 41517.3 41478.2 41439 41399.9 41360.7 41321.4 41282.2 41243 41203.7 41164.4 41125 41085.7 41046.3 41006.9 40967.5 40928 40888.5 40849.1 40809.6 40770 40730.4 40690.8 40651.2 40611.6 40571.9 40532.2 40492.5 40452.8 40413 40373.2 40333.4 40293.5 40253.7 40213.8 40173.9 40133.9 40093.9 40053.9 40013.9 39973.9 39933.8 39893.7 39853.5 39813.4 39773.2 39733 39692.7 39652.5 39612.2 39571.9 39531.5 39491.1 39450.7 39410.4 39369.8 39329.3 39288.8 39248.3 39207.8 39188.5 39169.3 39150.1 39130.9 39111.6 39090.1 39068.7 39047.3 39025.9 39004.4 38963.6 38922.8 38882 38841.2 38800.3 38759.4 38718.4 38677.4 38636.5 38595.5 38554.4 38513.2 38472.1 38431 38389.9 38348.6 38307.3 38266 38224.7 38183.4 38142 38100.5 38059.1 38017.6 37976.2 37934.6 37893 37851.3 37809.7 37768.1 37726.3 37684.5 37642.7 37600.9 37559.1 37517.2 37475.2 37433.2 37391.3 37349.3 37307.1 37265 37222.8 37180.7 37138.5 37096.2 37053.8 37011.5 36969.2 36926.8 36884.3 36841.8 36799.2 36756.7 36714.1 36671.5 36628.7 36586 36543.3 36500.5 36457.7 36414.7 36371.8 36328.9 36285.9 36242.8 36199.7 36156.6 36113.5 36070.3 36027 35983.7 35940.4 35897 35853.7 35810.2 35766.6 35723.1 35679.5 35635.9 35592.2 35548.5 35504.7 35461 35417.2 35373.2 35329.3 35285.3 35241.3 35197.3 35153.1 35108.9 35064.7 35020.5 34976.3 34931.9 34887.5 34843 34798.6 34754.1 34709.5 34664.8 34620.2 34575.5 34530.8 34485.9 34441 34396.1 34351.2 34306.3 34261.2 34216 34170.9 34125.7 34080.5 34035.2 33989.8 33944.4 33899 33853.6 33808 33762.4 33716.8 33671.1 33625.4 33579.6 33533.7 33487.8 33441.9 33395.9 33349.8 33303.7 33257.5 33211.4 33165.1 33118.8 33072.4 33026 32979.5 32933 32886.4 32839.8 32793.1 32746.3 32699.6 32652.7 32605.8 32558.8 32511.8 32464.8 32417.6 32370.4 32323.2 32275.9 32228.6 32181.1 32133.6 32086.1 32038.5 31991 31943.2 31895.4 31847.6 31799.8 31751.9 31703.8 31655.8 31607.7 31559.5 31511.4 31463 31414.7 31366.3 31317.8 31269.4 31220.7 31172.1 31123.4 31074.6 31025.9 30976.9 30928 30879 30829.9 30780.9 30731.6 30682.3 30633 30583.7 30534.3 30484.7 30435.1 30385.5 30335.8 30286.1 30236.2 30186.3 30136.4 30086.4 30036.4 29986.2 29935.9 29885.7 29835.3 29785 29734.5 29683.9 29633.3 29582.7 29532 29481.1 29430.2 29379.3 29328.3 29277.3 29226.1 29174.9 29123.6 29072.3 29020.9 28969.4 28917.8 28866.2 28814.5 28762.8 28710.9 28659 28607 28555 28502.9 28450.7 28398.4 28346.1 28293.7 28241.3 28188.7 28136 28083.3 28030.6 27977.8 27924.8 27871.8 27818.8 27765.7 27712.6 27659.2 27605.8 27552.4 27498.9 27445.4 27391.6 27337.9 27284.1 27230.2 27176.3 27122.2 27068.1 27013.9 26959.6 26905.4 26850.9 26796.3 26741.8 26687.2 26632.5 26577.6 26522.7 26467.8 26412.8 26357.7 26302.5 26247.2 26191.9 26136.5 26081.1 26025.5 25969.8 25914.1 25858.4 25802.7 25746.7 25690.8 25634.8 25578.8 25522.8 25466.5 25410.3 25354.1 25297.9 25241.6 25185.2 25128.8 25072.5 25016.2 24959.9 24903.4 24847.1 24790.9 24734.7 24678.6 24622.3 24566.5 24510.8 24455.2 24399.9 24344.6 24289.2 24233.7 24178.2 24122.5 24067.4 24018.2 23969 23919.8 23875.2 23825.1 23759.4 23693.6 23627.8 23553.5 23504.5 23474.9 23445.7 23416.7 23403.6 23397.3 23391.1 23384.9 23378.7 23376.2 23372.1 23364.1 23356.1 23348.1 23338.9 23313.4 23287.7 23261.8 23235.7 23195.7 23120.4 23051.2 22982 22912.9 22855.2 22803 22746.1 22689.2 22632.2 22569.5 22501.3 22432.8 22364.3 22295.7 22226.7 22154.8 22081 22007.3 21933.5 21857.9 21779.1 21698.8 21618.5 21538.3 21456.5 21371.6 21284.9 21198.3 21111.6 21023.2 20931.6 20838.1 20744.6 20651.1 20555.9 20457.3 20356.4 20255.5 20154.7 20051.8 19945.2 19836.3 19727.4 19618.5 19507.5 19392.5 19274.6 19156.8 19039 18918.6 18793.9 18666.2 18538.6 18410.9 18280.7 18145.7 18006.8 17867.9 17729 17586.7 17439.1 17288.3 17137.5 16986.7 16833.3 16674.1 16508.3 16342.5 16176.7 16004.9 15826.7 15647.4 15468.1 15288.8 15109 14922.3 14720.9 14519.5 14318.1 14102.8 13879.4 13665.6 13451.7 13237.9 13034.1 12822.4 12571.4 12320.3 12069.3 11780.2 11480 11226 10971.9 10717.8 10509.9 10294.3 9969.9 9644.77 9317.64 8884.76 8435.59 8130.02 7830.39 7539.89 7391.22 7236.53 6820.83 6374.53 5870.93 5120.95 4342.06 3829.93 3446.1 3274.59 3336.31 3398.47 3341.92 2764.61 1392.12 0