# vtk DataFile Version 2.0
track0
ASCII
DATASET POLYDATA
POINTS 12278 float
-0.0205 0.001 1e-05
-0.02052 0.000999216 1e-05
-0.02054 0.000998592 1e-05
-0.02056 0.000998126 1e-05
-0.02058 0.000997818 1e-05
-0.0206 0.000997665 1e-05
-0.0205 0.00367778 1e-05
-0.02052 0.00367703 1e-05
-0.02054 0.00367643 1e-05
-0.02056 0.00367599 1e-05
-0.02058 0.00367569 1e-05
-0.0206 0.00367554 1e-05
-0.0205 0.00635556 1e-05
-0.02052 0.00635527 1e-05
-0.02054 0.00635505 1e-05
-0.02056 0.00635488 1e-05
-0.02058 0.00635476 1e-05
-0.0206 0.00635471 1e-05
-0.0205 0.00903333 1e-05
-0.02052 0.00903311 1e-05
-0.02054 0.00903293 1e-05
-0.02056 0.0090328 1e-05
-0.02058 0.00903271 1e-05
-0.0206 0.00903266 1e-05
-0.0205 0.0117111 1e-05
-0.02052 0.0117111 1e-05
-0.02054 0.011711 1e-05
-0.02056 0.011711 1e-05
-0.02058 0.011711 1e-05
-0.0206 0.011711 1e-05
-0.0205 0.0143889 1e-05
-0.02052 0.014389 1e-05
-0.02054 0.014389 1e-05
-0.02056 0.0143891 1e-05
-0.02058 0.0143891 1e-05
-0.0206 0.0143891 1e-05
-0.0205 0.0170667 1e-05
-0.02052 0.017067 1e-05
-0.02054 0.0170672 1e-05
-0.02056 0.0170674 1e-05
-0.02058 0.0170675 1e-05
-0.0206 0.0170676 1e-05
-0.0205 0.0197444 1e-05
-0.02052 0.019745 1e-05
-0.02054 0.0197454 1e-05
-0.02056 0.0197457 1e-05
-0.02058 0.0197459 1e-05
-0.0206 0.019746 1e-05
-0.0205 0.0224222 1e-05
-0.02052 0.022423 1e-05
-0.02054 0.0224236 1e-05
-0.02056 0.0224241 1e-05
-0.02058 0.0224244 1e-05
-0.0206 0.0224245 1e-05
-0.0205 0.0251 1e-05
-0.02052 0.0251003 1e-05
-0.02054 0.0251005 1e-05
-0.02056 0.0251007 1e-05
-0.02058 0.0251008 1e-05
-0.0206 0.0251008 1e-05
-0.0205 0.001 1e-05
-0.0203632 0.00100536 1e-05
-0.0202266 0.00101331 1e-05
-0.0200901 0.00102296 1e-05
-0.0200427 0.00102682 1e-05
-0.0198376 0.00104418 1e-05
-0.0196338 0.00107322 1e-05
-0.0194327 0.00111734 1e-05
-0.0192368 0.00118024 1e-05
-0.0190172 0.00124951 1e-05
-0.0189002 0.00128348 1e-05
-0.0187827 0.00131598 1e-05
-0.0186649 0.001347 1e-05
-0.0185469 0.001377 1e-05
-0.0183807 0.00141936 1e-05
-0.0182041 0.00146458 1e-05
-0.0180267 0.00150692 1e-05
-0.0178487 0.0015464 1e-05
-0.0176703 0.00158389 1e-05
-0.0174976 0.00161991 1e-05
-0.0172846 0.00166394 1e-05
-0.0170715 0.00170741 1e-05
-0.0168583 0.00175029 1e-05
-0.0166449 0.00179219 1e-05
-0.0163945 0.00184007 1e-05
-0.0163234 0.00185324 1e-05
-0.0162522 0.00186629 1e-05
-0.016181 0.00187921 1e-05
-0.0161097 0.00189201 1e-05
-0.0160387 0.0019046 1e-05
-0.0157586 0.0019535 1e-05
-0.0154779 0.00199931 1e-05
-0.0151968 0.00204225 1e-05
-0.0149154 0.00208283 1e-05
-0.0146381 0.00212134 1e-05
-0.0143838 0.00215527 1e-05
-0.0141293 0.00218766 1e-05
-0.0138747 0.00221855 1e-05
-0.0136198 0.00224797 1e-05
-0.0132934 0.00228369 1e-05
-0.0132791 0.00228515 1e-05
-0.0132648 0.0022866 1e-05
-0.0132504 0.00228805 1e-05
-0.0132361 0.0022895 1e-05
-0.0132214 0.00229098 1e-05
-0.0129776 0.00231543 1e-05
-0.0127337 0.00233865 1e-05
-0.0124897 0.00236061 1e-05
-0.0122456 0.0023813 1e-05
-0.0120025 0.00240058 1e-05
-0.0117547 0.00241909 1e-05
-0.0115067 0.00243627 1e-05
-0.0112587 0.00245231 1e-05
-0.0110106 0.00246734 1e-05
-0.0107632 0.00248136 1e-05
-0.0105252 0.00249391 1e-05
-0.0102872 0.00250547 1e-05
-0.0100491 0.00251602 1e-05
-0.00981105 0.00252575 1e-05
-0.00957337 0.00253471 1e-05
-0.00934491 0.00254261 1e-05
-0.00911643 0.00254974 1e-05
-0.00888792 0.0025561 1e-05
-0.0086594 0.00256171 1e-05
-0.00843108 0.00256668 1e-05
-0.00821175 0.00257084 1e-05
-0.00799241 0.00257439 1e-05
-0.00777306 0.00257731 1e-05
-0.0075537 0.00257952 1e-05
-0.00733443 0.00258114 1e-05
-0.00712387 0.00258212 1e-05
-0.0069133 0.00258255 1e-05
-0.00670273 0.00258243 1e-05
-0.00649216 0.00258162 1e-05
-0.0062816 0.00258017 1e-05
-0.00607944 0.00257819 1e-05
-0.0058773 0.00257565 1e-05
-0.00567516 0.00257256 1e-05
-0.00547303 0.00256874 1e-05
-0.00527083 0.00256419 1e-05
-0.00507675 0.00255912 1e-05
-0.00488269 0.00255342 1e-05
-0.00468865 0.0025471 1e-05
-0.00449464 0.00253997 1e-05
-0.00430044 0.0025319 1e-05
-0.00411412 0.00252328 1e-05
-0.00392784 0.00251387 1e-05
-0.00374159 0.00250368 1e-05
-0.0035554 0.00249254 1e-05
-0.00336883 0.00248015 1e-05
-0.00318995 0.00246711 1e-05
-0.00301115 0.00245299 1e-05
-0.00283245 0.00243774 1e-05
-0.00265386 0.0024212 1e-05
-0.00247443 0.00240313 1e-05
-0.0023027 0.00238425 1e-05
-0.00213114 0.00236383 1e-05
-0.00195982 0.00234153 1e-05
-0.00178875 0.00231737 1e-05
-0.00161577 0.00229104 1e-05
-0.00161569 0.00229103 1e-05
-0.00161561 0.00229102 1e-05
-0.00161553 0.002291 1e-05
-0.00161546 0.00229099 1e-05
-0.00161538 0.00229098 1e-05
-0.00145058 0.00226407 1e-05
-0.0012862 0.00223481 1e-05
-0.00112223 0.00220325 1e-05
-0.000958713 0.00216946 1e-05
-0.000791418 0.00213235 1e-05
-0.000633135 0.00209424 1e-05
-0.000475556 0.00205331 1e-05
-0.000318719 0.00200962 1e-05
-0.000162835 0.00196265 1e-05
0 0.00190949 1e-05
3.73269e-05 0.0018963 1e-05
7.45538e-05 0.00188282 1e-05
0.000111682 0.00186908 1e-05
0.000148714 0.00185508 1e-05
0.000179015 0.00184337 1e-05
0.000248889 0.00181593 1e-05
0.000318353 0.00178746 1e-05
0.000387391 0.00175798 1e-05
0.000455989 0.00172749 1e-05
0.000528387 0.0016941 1e-05
0.000634886 0.00164312 1e-05
0.000740278 0.00158989 1e-05
0.00084451 0.00153442 1e-05
0.00094762 0.00147689 1e-05
0.00101981 0.00143468 1e-05
0.00102803 0.00142972 1e-05
0.00103623 0.00142474 1e-05
0.00104443 0.00141975 1e-05
0.00105261 0.00141474 1e-05
0.00106088 0.00140966 1e-05
0.00116821 0.00134347 1e-05
0.00127404 0.00127491 1e-05
0.00137827 0.00120395 1e-05
0.00148099 0.00113081 1e-05
0.00159661 0.00104511 1e-05
0.00159679 0.00104497 1e-05
0.00159697 0.00104483 1e-05
0.00159716 0.00104468 1e-05
0.00159734 0.00104454 1e-05
0.00159752 0.0010444 1e-05
0.00169216 0.000970847 1e-05
0.00178541 0.000895525 1e-05
0.00187717 0.000818405 1e-05
0.00196752 0.000739632 1e-05
0.0020379 0.000676366 1e-05
0.00205798 0.000657857 1e-05
0.00207799 0.000639259 1e-05
0.0020979 0.000620571 1e-05
0.00211776 0.000601819 1e-05
0.00213833 0.000582283 1e-05
0.00219144 0.000531485 1e-05
0.00224405 0.000480171 1e-05
0.00229615 0.000428332 1e-05
0.00234771 0.000375963 1e-05
0.00239399 0.000328254 1e-05
0.00245186 0.000267769 1e-05
0.0025091 0.000206684 1e-05
0.0025657 0.000145014 1e-05
0.0026218 8.28786e-05 1e-05
0.00268334 1.35237e-05 1e-05
0.00268569 1.0819e-05 1e-05
0.00268804 8.11322e-06 1e-05
0.00269039 5.40649e-06 1e-05
0.00269274 2.69877e-06 1e-05
0.00269508 0 1e-05
0.00275898 -7.37367e-05 1e-05
0.00282226 -0.000148005 1e-05
0.0028849 -0.000222813 1e-05
0.00294687 -0.000298172 1e-05
0.00300394 -0.000368654 1e-05
0.00304967 -0.000425964 1e-05
0.00309509 -0.000483521 1e-05
0.0031402 -0.000541319 1e-05
0.00318506 -0.000599313 1e-05
0.00323259 -0.000661324 1e-05
0.00325061 -0.000685078 1e-05
0.00326858 -0.000708872 1e-05
0.0032865 -0.000732705 1e-05
0.00330436 -0.000756578 1e-05
0.00332188 -0.000780089 1e-05
0.00339002 -0.000871876 1e-05
0.00345757 -0.000964106 1e-05
0.00352448 -0.00105679 1e-05
0.00359086 -0.00114986 1e-05
0.00365372 -0.00123896 1e-05
0.0036802 -0.00127688 1e-05
0.0037066 -0.00131486 1e-05
0.00373293 -0.00135289 1e-05
0.0037592 -0.00139096 1e-05
0.00378611 -0.00143006 1e-05
0.00383007 -0.00149414 1e-05
0.00387381 -0.00155837 1e-05
0.00391733 -0.00162275 1e-05
0.00396063 -0.00168728 1e-05
0.00400276 -0.00175043 1e-05
0.004071 -0.0018533 1e-05
0.00413881 -0.00195644 1e-05
0.0042062 -0.00205987 1e-05
0.00427331 -0.00216348 1e-05
0.00434393 -0.00227319 1e-05
0.00434995 -0.00228261 1e-05
0.00435597 -0.00229204 1e-05
0.00436199 -0.00230146 1e-05
0.004368 -0.00231089 1e-05
0.004374 -0.0023203 1e-05
0.00445484 -0.00244725 1e-05
0.00453524 -0.00257448 1e-05
0.00461525 -0.00270197 1e-05
0.00469489 -0.00282967 1e-05
0.00477277 -0.00295497 1e-05
0.00479943 -0.00299803 1e-05
0.00482607 -0.0030411 1e-05
0.00485268 -0.00308418 1e-05
0.00487929 -0.00312727 1e-05
0.00490609 -0.00317068 1e-05
0.00496671 -0.00326887 1e-05
0.00502718 -0.00336715 1e-05
0.00508749 -0.00346553 1e-05
0.00514768 -0.00356398 1e-05
0.00520731 -0.00366161 1e-05
0.00526037 -0.00374854 1e-05
0.00531339 -0.00383549 1e-05
0.00536638 -0.00392248 1e-05
0.00541938 -0.00400944 1e-05
0.00547262 -0.00409667 1e-05
0.00551558 -0.00416696 1e-05
0.00555851 -0.00423727 1e-05
0.00560141 -0.0043076 1e-05
0.00564428 -0.00437794 1e-05
0.0056871 -0.00444811 1e-05
0.00575839 -0.00456487 1e-05
0.00582973 -0.0046816 1e-05
0.00590111 -0.0047983 1e-05
0.00597263 -0.00491492 1e-05
0.00604356 -0.0050301 1e-05
0.00607981 -0.00508873 1e-05
0.00611606 -0.00514735 1e-05
0.00615233 -0.00520598 1e-05
0.00618862 -0.00526458 1e-05
0.00622501 -0.00532326 1e-05
0.0063038 -0.00545003 1e-05
0.00638277 -0.00557668 1e-05
0.00646194 -0.0057032 1e-05
0.00654138 -0.00582956 1e-05
0.00661893 -0.0059521 1e-05
0.00666283 -0.00602102 1e-05
0.00670679 -0.0060899 1e-05
0.00675079 -0.00615876 1e-05
0.00679489 -0.00622756 1e-05
0.00683936 -0.00629671 1e-05
0.00691124 -0.00640811 1e-05
0.00698338 -0.00651934 1e-05
0.00705578 -0.00663041 1e-05
0.00712846 -0.00674128 1e-05
0.00719878 -0.00684774 1e-05
0.00726948 -0.006954 1e-05
0.0073404 -0.00706011 1e-05
0.00741155 -0.00716607 1e-05
0.007483 -0.00727182 1e-05
0.00755599 -0.00737909 1e-05
0.00760142 -0.00744537 1e-05
0.00764698 -0.00751157 1e-05
0.00769266 -0.00757768 1e-05
0.00773847 -0.0076437 1e-05
0.00778313 -0.00770771 1e-05
0.00790091 -0.00787567 1e-05
0.00801946 -0.00804309 1e-05
0.00813878 -0.00820996 1e-05
0.0082591 -0.00837611 1e-05
0.00837203 -0.00853001 1e-05
0.00837975 -0.00854039 1e-05
0.00838747 -0.00855076 1e-05
0.0083952 -0.00856113 1e-05
0.00840293 -0.0085715 1e-05
0.00841068 -0.00858189 1e-05
0.00852165 -0.00873051 1e-05
0.00863343 -0.0088785 1e-05
0.00874606 -0.00902586 1e-05
0.00885956 -0.00917255 1e-05
0.00896551 -0.00930762 1e-05
0.00903014 -0.00938896 1e-05
0.00909504 -0.00947009 1e-05
0.00916021 -0.00955101 1e-05
0.00922567 -0.00963168 1e-05
0.00929331 -0.00971439 1e-05
0.00934737 -0.00977996 1e-05
0.00940162 -0.00984537 1e-05
0.00945607 -0.00991062 1e-05
0.00951071 -0.0099757 1e-05
0.0095636 -0.0100383 1e-05
0.00968415 -0.01018 1e-05
[...]
POINT_DATA 12278
 FIELD attributes 1
U 3 12278 float
9.72339 	0.381311 	0 9.77871 	0.305049 	0 9.83405 	0.228765 	0 9.8894 	0.152465 	0 9.94476 	0.0761532 	0 10 	0 	0
10.0671 	0.375483 	0 10.0537 	0.300387 	0 10.0403 	0.225271 	0 10.0268 	0.150141 	0 10.0134 	0.0750009 	0 10 	0 	0
10.0364 	0.141572 	0 10.0291 	0.113304 	0 10.0218 	0.085089 	0 10.0145 	0.0569263 	0 10.0071 	0.0288164 	0 10 	0 	0
10.0137 	0.111519 	0 10.011 	0.0892151 	0 10.0082 	0.0669108 	0 10.0055 	0.0446062 	0 10.0027 	0.0223012 	0 10 	0 	0
10.0097 	0.0196534 	0 10.0078 	0.0157227 	0 10.0058 	0.0117921 	0 10.0039 	0.00786136 	0 10.0019 	0.00393067 	0 10 	0 	0
10.0102 	-0.0372875 	0 10.0082 	-0.02983 	0 10.0061 	-0.0223725 	0 10.0041 	-0.0149149 	0 10.002 	-0.0074574 	0 10 	0 	0
10.0174 	-0.148996 	0 10.0139 	-0.119197 	0 10.0105 	-0.0893967 	0 10.007 	-0.0595953 	0 10.0035 	-0.0297932 	0 10 	0 	0
10.0362 	-0.265901 	0 10.029 	-0.212721 	0 10.0217 	-0.159534 	0 10.0145 	-0.106342 	0 10.0072 	-0.053146 	0 10 	0 	0
10.0563 	-0.387167 	0 10.045 	-0.309734 	0 10.0338 	-0.23228 	0 10.0225 	-0.15481 	0 10.0112 	-0.0773281 	0 10 	0 	0
8.30133 	-0.114495 	0 8.4287 	-0.091596 	0 8.55659 	-0.0686962 	0 8.68498 	-0.0457957 	0 8.81385 	-0.0228949 	0 8.94315 	0 	0
9.72339 	0.381311 	0 9.5415 	0.555241 	0 9.39671 	0.663651 	0 9.26203 	0.754272 	0 9.2183 	0.780385 	0 8.95344 	1.27614 	0 8.70578 	1.91036 	0 8.48173 	2.72184 	0 8.46724 	2.67123 	0 8.47252 	2.45986 	0 8.50117 	2.35314 	0 8.52498 	2.2443 	0 8.51221 	2.16311 	0 8.42487 	2.14738 	0 8.30214 	2.12559 	0 8.30117 	1.9821 	0 8.28715 	1.83798 	0 8.21181 	1.72569 	0 8.035 	1.67507 	0 7.86306 	1.62575 	0 7.68323 	1.56759 	0 7.50177 	1.50875 	0 7.42793 	1.45839 	0 7.36148 	1.40771 	0 7.27865 	1.34671 	0 7.22249 	1.32376 	0 7.16614 	1.3007 	0 7.10958 	1.27753 	0 7.07928 	1.2544 	0 7.05291 	1.23121 	0 6.97394 	1.13838 	0 6.88841 	1.05226 	0 6.79883 	0.980329 	0 6.71191 	0.932083 	0 6.6228 	0.883658 	0 6.55089 	0.833774 	0 6.49228 	0.787587 	0 6.44246 	0.743855 	0 6.3887 	0.69909 	0 6.31694 	0.642265 	0 6.31477 	0.64017 	0 6.3132 	0.638346 	0 6.31172 	0.636559 	0 6.31023 	0.634771 	0 6.30868 	0.632932 	0 6.27132 	0.597061 	0 6.23151 	0.560863 	0 6.18922 	0.524331 	0 6.1444 	0.487462 	0 6.10943 	0.456251 	0 6.07602 	0.420968 	0 6.04571 	0.390994 	0 6.01701 	0.364549 	0 5.99443 	0.339599 	0 5.97316 	0.315194 	0 5.95246 	0.28906 	0 5.92972 	0.262717 	0 5.91348 	0.241655 	0 5.9034 	0.222651 	0 5.89182 	0.203583 	0 5.87917 	0.183516 	0 5.86498 	0.163349 	0 5.85627 	0.143785 	0 5.85337 	0.127396 	0 5.8492 	0.11098 	0 5.84297 	0.0943445 	0 5.8355 	0.0776679 	0 5.83342 	0.0589651 	0 5.83631 	0.0430907 	0 5.83801 	0.0272167 	0 5.83718 	0.0119185 	0 5.83535 	-0.00344853 	0 5.83922 	-0.0225506 	0 5.84733 	-0.0400428 	0 5.85426 	-0.057481 	0 5.85862 	-0.0735485 	0 5.86186 	-0.0895901 	0 5.87123 	-0.110979 	0 5.88469 	-0.132518 	0 5.89666 	-0.153985 	0 5.90652 	-0.173352 	0 5.91509 	-0.19265 	0 5.92941 	-0.21811 	0 5.94829 	-0.247067 	0 5.96529 	-0.275884 	0 5.98123 	-0.302118 	0 5.99553 	-0.328202 	0 6.01457 	-0.359817 	0 6.03867 	-0.400982 	0 6.06028 	-0.441905 	0 6.08262 	-0.48037 	0 6.10482 	-0.520995 	0 6.13013 	-0.567653 	0 6.15461 	-0.619726 	0 6.17874 	-0.679539 	0 6.20612 	-0.738537 	0 6.23747 	-0.811932 	0 6.26494 	-0.88479 	0 6.28859 	-0.95711 	0 6.30871 	-1.02982 	0 6.30872 	-1.02986 	0 6.30874 	-1.02991 	0 6.30875 	-1.02997 	0 6.30876 	-1.03002 	0 6.30878 	-1.03008 	0 6.33257 	-1.12727 	0 6.35112 	-1.22236 	0 6.36454 	-1.31538 	0 6.3753 	-1.41408 	0 6.38858 	-1.53829 	0 6.40638 	-1.66404 	0 6.41794 	-1.7877 	0 6.40582 	-1.93022 	2.62114e-20 6.36945 	-2.07918 	5.37339e-20 6.3193 	-2.23397 	8.12364e-20 6.3111 	-2.28441 	2.34062e-20 6.29892 	-2.33172 	5.86143e-21 6.28256 	-2.37573 	3.12826e-20 6.26565 	-2.41948 	5.73238e-20 6.25131 	-2.45517 	7.9196e-20 6.22492 	-2.55104 	1.78976e-19 6.19657 	-2.64635 	2.82918e-19 6.16629 	-2.74108 	3.90996e-19 6.12013 	-2.82224 	2.74355e-19 6.06357 	-2.9026 	6.24932e-20 5.98361 	-3.02226 	4.92772e-20 5.89845 	-3.13895 	3.61901e-20 5.80157 	-3.2368 	8.57495e-21 5.70031 	-3.33271 	-1.80406e-20 5.62544 	-3.39922 	-3.61653e-20 5.61629 	-3.40853 	-3.59573e-20 5.60711 	-3.41784 	-3.57342e-20 5.59784 	-3.42649 	-3.68857e-20 5.58845 	-3.43345 	-4.16959e-20 5.57891 	-3.44048 	-4.65518e-20 5.45902 	-3.53669 	-2.82833e-20 5.3338 	-3.63094 	-9.44194e-21 5.20776 	-3.70789 	1.29183e-22 5.08153 	-3.76679 	-1.78194e-22 4.9326 	-3.83206 	7.85861e-23 4.93233 	-3.83221 	4.49709e-23 4.93206 	-3.83236 	1.13552e-23 4.93181 	-3.83246 	1.99347e-23 4.93158 	-3.83254 	5.00382e-23 4.93134 	-3.83262 	8.01519e-23 4.80564 	-3.88196 	1.13351e-21 4.67585 	-3.9297 	2.49122e-21 4.54894 	-3.96619 	4.219e-21 4.43133 	-3.98329 	6.3439e-21 4.33601 	-3.99565 	8.21446e-21 4.30566 	-4.00332 	1.33636e-20 4.27509 	-4.01091 	1.85507e-20 4.24977 	-4.01262 	9.22591e-21 4.22458 	-4.01398 	-8.28552e-22 4.19827 	-4.01534 	-1.12534e-20 4.12448 	-4.02264 	-6.36136e-20 4.0495 	-4.02943 	-1.15606e-19 3.97349 	-4.03553 	-1.65788e-19 3.90934 	-4.03 	-1.01559e-19 3.85054 	-4.02462 	-4.30491e-20 3.77295 	-4.02677 	4.18274e-21 3.69545 	-4.02602 	4.20076e-20 3.62355 	-4.0139 	3.42084e-20 3.55057 	-4.00131 	2.66801e-20 3.46851 	-3.98681 	1.86516e-20 3.46518 	-3.9864 	1.9274e-20 3.46186 	-3.98598 	1.98966e-20 3.45854 	-3.98556 	2.05194e-20 3.4554 	-3.98484 	2.1042e-20 3.45235 	-3.98401 	2.15235e-20 3.38421 	-3.97198 	1.41277e-20 3.31402 	-3.95782 	7.41962e-21 3.24262 	-3.94297 	7.06198e-22 3.17083 	-3.91591 	6.16639e-21 3.1032 	-3.88914 	1.23496e-20 3.0611 	-3.87913 	3.47282e-20 3.01869 	-3.86773 	5.06323e-20 2.97708 	-3.84876 	2.3362e-20 2.93506 	-3.82956 	-3.85136e-21 2.88984 	-3.80886 	-3.27874e-20 2.87172 	-3.80231 	-3.88879e-20 2.85353 	-3.7957 	-4.49907e-20 2.83525 	-3.78905 	-5.10957e-20 2.81706 	-3.77999 	-5.7286e-20 2.79915 	-3.77048 	-6.33951e-20 2.74575 	-3.74941 	-1.0712e-19 2.69152 	-3.72786 	-1.50965e-19 2.63672 	-3.69721 	-1.46195e-19 2.5823 	-3.65983 	-8.81902e-20 2.52978 	-3.62372 	-3.27125e-20 2.51285 	-3.61479 	2.07182e-21 2.49587 	-3.60566 	3.5253e-20 2.47999 	-3.59326 	2.99968e-20 2.46404 	-3.58081 	2.47757e-20 2.44761 	-3.56799 	1.94545e-20 2.41708 	-3.54891 	5.65586e-20 2.38629 	-3.52964 	9.35833e-20 2.35525 	-3.51017 	1.30526e-19 2.32526 	-3.48566 	1.03444e-19 2.29587 	-3.46122 	7.23027e-20 2.25893 	-3.43553 	4.24482e-20 2.22154 	-3.40951 	1.25614e-20 2.18697 	-3.37664 	-2.90748e-21 2.15216 	-3.34343 	-1.81149e-20 2.11502 	-3.30809 	-3.4222e-20 2.11132 	-3.30524 	-3.18032e-20 2.10761 	-3.30238 	-2.93871e-20 2.1039 	-3.29952 	-2.69739e-20 2.10041 	-3.2961 	-3.40112e-20 2.09693 	-3.29267 	-4.13447e-20 2.06022 	-3.26038 	-1.64537e-19 2.02449 	-3.22604 	-2.56525e-19 1.98944 	-3.18994 	-2.99648e-19 1.9572 	-3.14905 	-1.93315e-19 1.92544 	-3.10882 	-8.89828e-20 1.91684 	-3.09913 	-7.78879e-20 1.90821 	-3.08943 	-6.67888e-20 1.90087 	-3.07858 	-5.65139e-20 1.89383 	-3.06747 	-4.64297e-20 1.88674 	-3.05627 	-3.62698e-20 1.86481 	-3.03089 	-1.17353e-20 1.84277 	-3.00541 	1.28207e-20 1.82119 	-2.97926 	2.99925e-20 1.80216 	-2.95029 	1.21605e-20 1.78327 	-2.92154 	-5.50809e-21 1.76988 	-2.90258 	-2.11283e-20 1.75645 	-2.88359 	-3.67367e-20 1.74521 	-2.8633 	-1.81037e-20 1.73491 	-2.84249 	1.47317e-20 1.72461 	-2.82164 	4.76733e-20 1.71229 	-2.80445 	1.21751e-20 1.69994 	-2.78724 	-2.3273e-20 1.68823 	-2.76955 	-3.48875e-20 1.67815 	-2.7507 	1.29825e-20 1.66811 	-2.73191 	6.07213e-20 1.65478 	-2.70771 	1.97488e-19 1.64148 	-2.68353 	3.34194e-19 1.63056 	-2.65858 	2.96391e-19 1.6214 	-2.63315 	1.33628e-19 1.61249 	-2.60811 	-2.78238e-20 1.60469 	-2.59475 	-5.73741e-20 1.59689 	-2.58139 	-8.69324e-20 1.5899 	-2.56769 	-8.97759e-20 1.58402 	-2.55353 	-5.62813e-20 1.57816 	-2.53938 	-2.27601e-20 1.56817 	-2.51486 	-2.46221e-20 1.55829 	-2.49044 	-2.6524e-20 1.55035 	-2.46589 	-1.93312e-20 1.54492 	-2.4412 	-5.0134e-22 1.53985 	-2.41739 	1.77475e-20 1.5332 	-2.4029 	2.97211e-20 1.52659 	-2.38844 	4.169e-20 1.52128 	-2.37375 	4.57207e-20 1.51693 	-2.35892 	4.40972e-20 1.5126 	-2.34405 	4.24437e-20 1.50737 	-2.32432 	2.55668e-20 1.50226 	-2.3047 	8.66436e-21 1.49823 	-2.28528 	-3.13064e-21 1.49688 	-2.26624 	-1.11902e-21 1.49578 	-2.24808 	8.1346e-22 1.48881 	-2.22756 	7.62591e-20 1.48195 	-2.20714 	1.51932e-19 1.47768 	-2.18688 	1.2579e-19 1.47435 	-2.16678 	6.78079e-20 1.47113 	-2.14649 	8.9984e-21 1.46992 	-2.13595 	-2.33576e-20 1.46878 	-2.12546 	-5.56701e-20 1.4679 	-2.11514 	-8.19948e-20 1.46942 	-2.10626 	-3.64813e-20 1.47099 	-2.09769 	7.88486e-21 1.46386 	-2.06748 	4.60806e-21 1.45703 	-2.03755 	1.31349e-21 1.45626 	-2.01098 	-2.34551e-20 1.45683 	-1.98527 	-5.17307e-20 1.45944 	-1.96231 	-7.48571e-20 1.45897 	-1.96034 	-6.85082e-20 1.45849 	-1.95838 	-6.22142e-20 1.45844 	-1.95662 	-6.69664e-20 1.4584 	-1.95487 	-7.17162e-20 1.45835 	-1.95311 	-7.64764e-20 1.45647 	-1.92819 	-2.09481e-19 1.45497 	-1.90357 	-3.41752e-19 1.45419 	-1.87953 	-4.46516e-19 1.45845 	-1.85931 	-1.91163e-19 1.46281 	-1.84095 	4.70799e-20 1.46066 	-1.82604 	1.11184e-19 1.45863 	-1.81123 	1.75069e-19 1.45955 	-1.79854 	1.42355e-19 1.46059 	-1.78596 	1.09742e-19 1.4618 	-1.77313 	7.63101e-20 1.46273 	-1.76357 	6.73878e-20 1.46373 	-1.75407 	5.84875e-20 1.46482 	-1.74464 	4.96094e-20 1.46743 	-1.73647 	5.16807e-20 1.4701 	-1.72871 	5.41958e-20 1.46958 	-1.70544 	2.95063e-20 1.46942 	-1.68246 	4.75501e-21 1.47233 	-1.6619 	2.0226e-20 1.47693 	-1.64244 	4.53113e-20 1.48288 	-1.62534 	6.85417e-20 1.48286 	-1.62126 	6.74219e-20 1.48294 	-1.61726 	6.75863e-20 1.48353 	-1.61364 	7.51533e-20 1.48413 	-1.61002 	8.27182e-20 1.48476 	-1.60637 	9.03716e-20 1.48746 	-1.59064 	1.39733e-19 1.49044 	-1.57511 	1.88973e-19 1.49368 	-1.55977 	2.38087e-19 1.49885 	-1.54628 	1.68531e-19 1.50426 	-1.5341 	8.22732e-20 1.50592 	-1.51461 	1.55654e-19 1.50842 	-1.49584 	2.03767e-19 1.51304 	-1.47901 	1.61905e-19 1.51801 	-1.46245 	1.20575e-19 1.52371 	-1.44495 	7.6779e-20 1.52373 	-1.44489 	7.65524e-20 1.52376 	-1.44483 	7.63257e-20 1.52378 	-1.44477 	7.60991e-20 1.52381 	-1.44471 	7.64004e-20 1.52383 	-1.44466 	7.69329e-20 1.52824 	-1.42763 	1.26489e-19 1.53304 	-1.41089 	1.74531e-19 1.53822 	-1.3944 	2.22181e-19 1.54499 	-1.37968 	1.84233e-19 1.55208 	-1.36676 	1.17105e-19 1.55542 	-1.34915 	2.03131e-19 1.55962 	-1.33244 	2.3963e-19 1.56527 	-1.3173 	1.74887e-19 1.57125 	-1.30239 	1.1036e-19 1.5776 	-1.28886 	3.78245e-20 1.57783 	-1.28785 	3.75704e-20 1.57811 	-1.2869 	3.6732e-20 1.57843 	-1.28601 	3.5157e-20 1.57875 	-1.28512 	3.35816e-20 1.57908 	-1.28422 	3.1997e-20 1.5843 	-1.27028 	-1.34891e-20 1.58981 	-1.25654 	-5.88962e-20 1.59562 	-1.243 	-1.04222e-19 1.60232 	-1.23066 	-8.93417e-20 1.60938 	-1.21994 	-3.00702e-20 1.61382 	-1.20442 	-7.54546e-20 1.61858 	-1.18911 	-1.21252e-19 1.62466 	-1.17573 	-1.03854e-19 1.63196 	-1.16307 	-6.09347e-20 1.63998 	-1.15169 	3.29617e-22 1.64227 	-1.14485 	2.88268e-20 1.64489 	-1.13852 	2.83154e-20 1.64775 	-1.13255 	7.13022e-21 1.65068 	-1.12663 	-1.40041e-20 1.65382 	-1.12045 	-3.61414e-20 1.65746 	-1.11363 	-6.80407e-20 1.66118 	-1.10686 	-9.98284e-20 1.665 	-1.10014 	-1.31504e-19 1.66904 	-1.09386 	-1.31066e-19 1.67327 	-1.08839 	-7.98806e-20 1.67842 	-1.07464 	-1.11917e-19 1.68444 	-1.06139 	-1.36099e-19 1.69177 	-1.04898 	-1.45543e-19 1.69996 	-1.03837 	-1.35215e-19 1.70805 	-1.02841 	-1.25226e-19 1.71382 	-1.0149 	-2.75526e-19 1.72008 	-1.0022 	-3.50395e-19 1.72697 	-0.990763 	-2.96323e-19 1.73411 	-0.979483 	-2.42759e-19 1.74241 	-0.969407 	-1.16066e-19 1.74452 	-0.965063 	-8.24863e-20 1.74677 	-0.96117 	-8.47046e-20 1.74908 	-0.957412 	-9.65898e-20 1.75142 	-0.953671 	-1.08427e-19 1.7539 	-0.949786 	-1.20723e-19 1.75876 	-0.942434 	-1.24331e-19 1.76374 	-0.935149 	-1.27911e-19 1.76883 	-0.927931 	-1.31463e-19 1.77407 	-0.921002 	-1.29654e-19 1.77941 	-0.91524 	-1.05279e-19 1.78545 	-0.903308 	-1.32889e-19 1.79251 	-0.891952 	-1.4477e-19 1.80044 	-0.881099 	-1.43542e-19 1.80876 	-0.872031 	-1.02972e-19 1.81704 	-0.8635 	-6.09466e-20 1.82365 	-0.851809 	-1.64905e-19 1.83053 	-0.840282 	-2.67033e-19 1.83769 	-0.83059 	-2.25717e-19 1.8459 	-0.821485 	-1.27943e-19 1.85459 	-0.813039 	4.38732e-23 1.8612 	-0.80248 	1.42183e-22 1.86798 	-0.793553 	1.07561e-22 1.87495 	-0.78477 	6.8913e-23 1.88211 	-0.776088 	2.98355e-23 1.89049 	-0.766315 	-1.51482e-23 1.89087 	-0.765901 	7.05439e-22 1.89125 	-0.765487 	1.42556e-21 1.89162 	-0.765074 	2.1452e-21 1.892 	-0.76466 	2.86438e-21 1.89237 	-0.764328 	4.19774e-22 1.89985 	-0.754874 	-2.52594e-20 1.90764 	-0.745591 	-4.71289e-20 1.91565 	-0.736419 	-6.882e-20 1.92389 	-0.727368 	-8.98869e-20 1.93179 	-0.720381 	-3.12031e-20 1.93868 	-0.710424 	-2.11327e-20 1.94625 	-0.700908 	-1.39355e-20 1.95463 	-0.691925 	-1.04222e-20 1.9628 	-0.684652 	-1.59888e-20 1.97094 	-0.677784 	-2.24538e-20 1.97825 	-0.668077 	5.39368e-20 1.98578 	-0.658472 	1.3044e-19 1.99321 	-0.650384 	1.32357e-19 2.00153 	-0.643437 	6.57217e-20 2.00987 	-0.636695 	1.63277e-22 2.01758 	-0.627242 	9.71194e-23 2.0251 	-0.618865 	-1.11753e-20 2.03253 	-0.611324 	-3.10209e-20 2.04013 	-0.603861 	-5.08428e-20 2.0486 	-0.597223 	-6.38714e-20 2.05551 	-0.589516 	-1.06456e-19 2.06204 	-0.583003 	-1.10012e-19 2.0687 	-0.576549 	-1.13629e-19 2.0755 	-0.570152 	-1.17304e-19 2.08347 	-0.562869 	-1.21593e-19 2.08423 	-0.562205 	-1.22775e-19 2.085 	-0.561541 	-1.23956e-19 2.08576 	-0.560879 	-1.25136e-19 2.08652 	-0.560217 	-1.26316e-19 2.08722 	-0.559679 	-1.22315e-19 2.09468 	-0.552379 	-9.43347e-20 2.10238 	-0.545221 	-6.50915e-20 2.11025 	-0.538132 	-3.58862e-20 2.11829 	-0.531112 	-6.7189e-21 2.12555 	-0.525621 	1.79224e-22 2.13271 	-0.517855 	6.74854e-20 2.14053 	-0.510874 	8.63805e-20 2.14854 	-0.503981 	1.03519e-19 2.1562 	-0.497904 	8.43369e-20 2.16321 	-0.492985 	1.49101e-20 2.1706 	-0.485462 	-5.50291e-20 2.17821 	-0.478089 	-1.18716e-19 2.18628 	-0.471447 	-1.34999e-19 2.19319 	-0.466582 	-6.7269e-20 2.20017 	-0.461801 	-7.25163e-23 2.20776 	-0.454521 	-3.96141e-23 2.21552 	-0.447299 	-6.88406e-24 2.22263 	-0.441434 	0 2.22947 	-0.436717 	0 2.23638 	-0.432074 	0 2.24413 	-0.425035 	0 2.25181 	-0.418316 	0 2.25831 	-0.413081 	0 2.265 	-0.408305 	-1.0153e-20 2.27181 	-0.403799 	-2.51746e-20 2.27969 	-0.397 	-6.23907e-21 2.28661 	-0.391363 	-6.35031e-21 2.29311 	-0.386312 	-1.58162e-20 2.29973 	-0.381326 	-2.67464e-20 2.3064 	-0.376958 	-6.64873e-20 2.31411 	-0.370645 	-2.8472e-20 2.32045 	-0.365743 	-3.02615e-20 2.32692 	-0.360875 	-3.20228e-20 2.33351 	-0.35604 	-3.37561e-20 2.3401 	-0.351523 	-4.6471e-20 2.34635 	-0.346659 	-3.69106e-20 2.35196 	-0.342441 	-3.83619e-20 2.35767 	-0.338248 	-3.97917e-20 2.36347 	-0.33408 	-4.12002e-20 2.37032 	-0.329257 	-4.28144e-20 2.37084 	-0.328903 	-4.26966e-20 2.37136 	-0.328549 	-4.2579e-20 2.37188 	-0.328196 	-4.24616e-20 2.3724 	-0.327842 	-4.23443e-20 2.37286 	-0.327542 	-4.2521e-20 2.37902 	-0.322952 	-4.92038e-20 2.38528 	-0.318416 	-5.37531e-20 2.39165 	-0.313908 	-5.82254e-20 2.39814 	-0.309427 	-6.26213e-20 2.40377 	-0.305699 	-3.8967e-20 2.4101 	-0.300983 	-7.51578e-20 2.41626 	-0.296623 	-8.72911e-20 2.42253 	-0.292288 	-9.93655e-20 2.42891 	-0.287978 	-1.11381e-19 2.43355 	-0.284991 	-7.13069e-20 2.44012 	-0.280206 	-1.1858e-19 2.44616 	-0.276019 	-1.21107e-19 2.45231 	-0.271855 	-1.23587e-19 2.4582 	-0.26795 	-1.19e-19 2.46217 	-0.265386 	-7.53458e-20 2.46878 	-0.260769 	-1.17874e-19 2.47495 	-0.256563 	-1.28009e-19 2.48095 	-0.252568 	-1.22405e-19 2.48589 	-0.249306 	-9.47997e-20 2.48962 	-0.246847 	-4.31989e-20 2.49621 	-0.242433 	4.31573e-20 2.5026 	-0.238213 	1.03851e-19 2.50844 	-0.234383 	1.09347e-19 2.51242 	-0.231694 	5.03679e-20 2.51591 	-0.229339 	-2.66968e-20 2.52244 	-0.225124 	-1.75934e-20 2.52909 	-0.220929 	-8.49998e-21 2.53461 	-0.217344 	8.66904e-21 2.53779 	-0.215077 	2.59571e-20 2.54102 	-0.212822 	4.32201e-20 2.5475 	-0.208803 	-4.3323e-20 2.55408 	-0.204801 	-1.29879e-19 2.55907 	-0.201579 	-1.41244e-19 2.56199 	-0.199412 	-7.10828e-20 2.56496 	-0.197256 	-1.02072e-21 2.57136 	-0.193428 	-1.07091e-22 2.57787 	-0.189616 	7.85739e-22 2.58237 	-0.18673 	-1.56703e-20 2.58503 	-0.184661 	-4.94164e-20 2.58774 	-0.182602 	-8.31376e-20 2.59405 	-0.178961 	-4.76823e-20 2.60046 	-0.175334 	-1.22428e-20 2.60453 	-0.172758 	-8.54652e-21 2.60692 	-0.170785 	-2.59299e-20 2.60936 	-0.16882 	-4.32976e-20 2.61558 	-0.165362 	-2.59872e-20 2.62188 	-0.161918 	-8.71031e-21 2.62549 	-0.15964 	-9.45477e-21 2.62768 	-0.157744 	-2.60533e-20 2.62985 	-0.155872 	-4.33785e-20 2.63596 	-0.152592 	-1.64884e-19 2.64161 	-0.149537 	-2.61786e-19 2.64505 	-0.147377 	-2.57095e-19 2.64732 	-0.145498 	-1.64746e-19 2.64922 	-0.143717 	-4.3359e-20 2.65521 	-0.14061 	-2.59812e-20 2.66022 	-0.137903 	-8.62101e-21 2.6635 	-0.135859 	8.70879e-21 2.66585 	-0.134012 	2.1308e-20 2.66749 	-0.132319 	3.025e-20 2.67336 	-0.12938 	9.13177e-20 2.67775 	-0.126982 	1.18688e-19 2.68086 	-0.12505 	1.17015e-19 2.6833 	-0.123247 	9.21096e-20 2.68468 	-0.121641 	3.1674e-20 2.69042 	-0.118866 	2.32321e-20 2.69423 	-0.116743 	1.48065e-20 2.69717 	-0.114919 	6.38589e-21 2.6997 	-0.11317 	0 2.70082 	-0.111647 	0 2.70643 	-0.10903 	0 2.70968 	-0.107151 	1.47201e-20 2.71246 	-0.105432 	3.25503e-20 2.71508 	-0.103744 	5.03654e-20 2.71595 	-0.102303 	6.81072e-20 2.72142 	-0.0998396 	1.90103e-19 2.72414 	-0.0981769 	1.93613e-19 2.72676 	-0.0965584 	1.91086e-19 2.72942 	-0.0949431 	1.88609e-19 2.73009 	-0.0935756 	7.0214e-20 2.73523 	-0.0913125 	5.32001e-20 2.73764 	-0.0897887 	3.62392e-20 2.7401 	-0.0882677 	1.92703e-20 2.7426 	-0.0867494 	2.29316e-21 2.74328 	-0.0854333 	1.46982e-20 2.74796 	-0.083387 	-4.34361e-24 2.75022 	-0.0819575 	-2.98894e-23 2.75252 	-0.0805303 	-5.5425e-23 2.75486 	-0.0791056 	-8.09504e-23 2.75554 	-0.077845 	6.38901e-21 2.7598 	-0.0759938 	-5.08056e-20 2.76191 	-0.0746549 	-4.95065e-20 2.76405 	-0.0733181 	-4.82347e-20 2.76623 	-0.0719834 	-4.69905e-20 2.76692 	-0.0707815 	-5.6436e-21 2.77079 	-0.0691058 	8.55965e-23 2.77275 	-0.067854 	6.04905e-23 2.77474 	-0.066604 	3.53747e-23 2.77677 	-0.0653557 	1.02492e-23 2.77745 	-0.0642146 	0 2.78095 	-0.0626969 	1.11912e-20 2.78277 	-0.0615285 	3.75144e-20 2.78461 	-0.0603617 	6.38289e-20 2.78649 	-0.0591964 	9.01346e-20 2.78717 	-0.0581172 	1.07498e-19 2.79033 	-0.0567418 	1.73094e-19 2.79201 	-0.0556533 	1.72016e-19 2.79372 	-0.0545662 	1.70965e-19 2.79546 	-0.0534803 	1.69943e-19 2.79611 	-0.0524636 	1.02488e-19 2.79897 	-0.0512163 	8.75811e-20 2.80051 	-0.0502043 	5.31478e-20 2.80209 	-0.0491933 	1.8709e-20 2.80369 	-0.0481835 	-1.57351e-20 2.80432 	-0.0472289 	-4.66895e-20 2.8069 	-0.0460974 	-9.02049e-20 2.80831 	-0.0451582 	-8.8997e-20 2.80976 	-0.04422 	-8.7823e-20 2.81123 	-0.0432827 	-8.66827e-20 2.81184 	-0.0423896 	-3.70506e-20 2.81415 	-0.0413626 	-4.95324e-20 2.81545 	-0.0404929 	-3.17119e-20 2.81677 	-0.039624 	-1.39092e-20 2.81812 	-0.0387558 	3.87561e-21 2.81869 	-0.037923 	4.31037e-20 2.82077 	-0.0369907 	4.98634e-20 2.82195 	-0.036187 	6.73343e-20 2.82316 	-0.035384 	8.47969e-20 2.82439 	-0.0345816 	1.02251e-19 2.82492 	-0.0338076 	1.22066e-19 2.82679 	-0.032961 	1.46224e-19 2.82787 	-0.03222 	1.37002e-19 2.82896 	-0.0314795 	1.278e-19 2.83008 	-0.0307396 	1.1862e-19 2.83057 	-0.0300225 	8.16887e-20 2.83225 	-0.0292538 	5.80647e-20 2.83322 	-0.0285722 	3.23167e-20 2.83421 	-0.0278911 	6.5668e-21 2.83522 	-0.0272103 	-1.91849e-20 2.83566 	-0.0265482 	-4.10464e-20 2.83718 	-0.0258503 	-5.61609e-20 2.83806 	-0.0252249 	-3.83872e-20 2.83895 	-0.0245998 	-2.06396e-20 2.83986 	-0.0239751 	-2.91805e-21 2.84024 	-0.0233656 	4.84821e-20 2.84162 	-0.0227324 	1.02315e-19 2.8424 	-0.02216 	1.09996e-19 2.8432 	-0.0215879 	1.1772e-19 2.84402 	-0.021016 	1.25488e-19 2.84434 	-0.0204568 	8.8621e-20 2.84559 	-0.0198826 	7.17988e-20 2.84629 	-0.0193601 	6.32551e-20 2.847 	-0.0188379 	5.47073e-20 2.84773 	-0.0183159 	4.61554e-20 2.84799 	-0.0178045 	3.76061e-20 2.84913 	-0.0172843 	1.44087e-20 2.84975 	-0.0168088 	1.4756e-20 2.85039 	-0.0163334 	1.50808e-20 2.85104 	-0.0158583 	1.5383e-20 2.85122 	-0.0153922 	4.14742e-20 2.85228 	-0.0149215 	3.98574e-20 2.