# vtk DataFile Version 2.0
track0
ASCII
DATASET POLYDATA
POINTS 12278 float
-0.0205 0.001 1e-05
-0.02052 0.000999216 1e-05
-0.02054 0.000998592 1e-05
-0.02056 0.000998126 1e-05
-0.02058 0.000997818 1e-05
-0.0206 0.000997665 1e-05
-0.0205 0.00367778 1e-05
-0.02052 0.00367703 1e-05
-0.02054 0.00367643 1e-05
-0.02056 0.00367599 1e-05
-0.02058 0.00367569 1e-05
-0.0206 0.00367554 1e-05
-0.0205 0.00635556 1e-05
-0.02052 0.00635527 1e-05
-0.02054 0.00635505 1e-05
-0.02056 0.00635488 1e-05
-0.02058 0.00635476 1e-05
-0.0206 0.00635471 1e-05
-0.0205 0.00903333 1e-05
-0.02052 0.00903311 1e-05
-0.02054 0.00903293 1e-05
-0.02056 0.0090328 1e-05
-0.02058 0.00903271 1e-05
-0.0206 0.00903266 1e-05
-0.0205 0.0117111 1e-05
-0.02052 0.0117111 1e-05
-0.02054 0.011711 1e-05
-0.02056 0.011711 1e-05
-0.02058 0.011711 1e-05
-0.0206 0.011711 1e-05
-0.0205 0.0143889 1e-05
-0.02052 0.014389 1e-05
-0.02054 0.014389 1e-05
-0.02056 0.0143891 1e-05
-0.02058 0.0143891 1e-05
-0.0206 0.0143891 1e-05
-0.0205 0.0170667 1e-05
-0.02052 0.017067 1e-05
-0.02054 0.0170672 1e-05
-0.02056 0.0170674 1e-05
-0.02058 0.0170675 1e-05
-0.0206 0.0170676 1e-05
-0.0205 0.0197444 1e-05
-0.02052 0.019745 1e-05
-0.02054 0.0197454 1e-05
-0.02056 0.0197457 1e-05
-0.02058 0.0197459 1e-05
-0.0206 0.019746 1e-05
-0.0205 0.0224222 1e-05
-0.02052 0.022423 1e-05
-0.02054 0.0224236 1e-05
-0.02056 0.0224241 1e-05
-0.02058 0.0224244 1e-05
-0.0206 0.0224245 1e-05
-0.0205 0.0251 1e-05
-0.02052 0.0251003 1e-05
-0.02054 0.0251005 1e-05
-0.02056 0.0251007 1e-05
-0.02058 0.0251008 1e-05
-0.0206 0.0251008 1e-05
-0.0205 0.001 1e-05
-0.0203632 0.00100536 1e-05
-0.0202266 0.00101331 1e-05
-0.0200901 0.00102296 1e-05
-0.0200427 0.00102682 1e-05
-0.0198376 0.00104418 1e-05
-0.0196338 0.00107322 1e-05
-0.0194327 0.00111734 1e-05
-0.0192368 0.00118024 1e-05
-0.0190172 0.00124951 1e-05
-0.0189002 0.00128348 1e-05
-0.0187827 0.00131598 1e-05
-0.0186649 0.001347 1e-05
-0.0185469 0.001377 1e-05
-0.0183807 0.00141936 1e-05
-0.0182041 0.00146458 1e-05
-0.0180267 0.00150692 1e-05
-0.0178487 0.0015464 1e-05
-0.0176703 0.00158389 1e-05
-0.0174976 0.00161991 1e-05
-0.0172846 0.00166394 1e-05
-0.0170715 0.00170741 1e-05
-0.0168583 0.00175029 1e-05
-0.0166449 0.00179219 1e-05
-0.0163945 0.00184007 1e-05
-0.0163234 0.00185324 1e-05
-0.0162522 0.00186629 1e-05
-0.016181 0.00187921 1e-05
-0.0161097 0.00189201 1e-05
-0.0160387 0.0019046 1e-05
-0.0157586 0.0019535 1e-05
-0.0154779 0.00199931 1e-05
-0.0151968 0.00204225 1e-05
-0.0149154 0.00208283 1e-05
-0.0146381 0.00212134 1e-05
-0.0143838 0.00215527 1e-05
-0.0141293 0.00218766 1e-05
-0.0138747 0.00221855 1e-05
-0.0136198 0.00224797 1e-05
-0.0132934 0.00228369 1e-05
-0.0132791 0.00228515 1e-05
-0.0132648 0.0022866 1e-05
-0.0132504 0.00228805 1e-05
-0.0132361 0.0022895 1e-05
-0.0132214 0.00229098 1e-05
-0.0129776 0.00231543 1e-05
-0.0127337 0.00233865 1e-05
-0.0124897 0.00236061 1e-05
-0.0122456 0.00238129 1e-05
-0.0120025 0.00240058 1e-05
-0.0117547 0.00241909 1e-05
-0.0115067 0.00243627 1e-05
-0.0112587 0.00245231 1e-05
-0.0110106 0.00246734 1e-05
-0.0107632 0.00248136 1e-05
-0.0105252 0.00249391 1e-05
-0.0102872 0.00250547 1e-05
-0.0100491 0.00251602 1e-05
-0.00981105 0.00252575 1e-05
-0.00957337 0.00253471 1e-05
-0.00934491 0.00254261 1e-05
-0.00911643 0.00254974 1e-05
-0.00888792 0.0025561 1e-05
-0.0086594 0.00256171 1e-05
-0.00843108 0.00256668 1e-05
-0.00821175 0.00257085 1e-05
-0.00799241 0.00257439 1e-05
-0.00777306 0.00257731 1e-05
-0.0075537 0.00257952 1e-05
-0.00733443 0.00258114 1e-05
-0.00712387 0.00258213 1e-05
-0.0069133 0.00258256 1e-05
-0.00670273 0.00258243 1e-05
-0.00649216 0.00258162 1e-05
-0.0062816 0.00258018 1e-05
-0.00607944 0.00257819 1e-05
-0.0058773 0.00257565 1e-05
-0.00567516 0.00257257 1e-05
-0.00547303 0.00256875 1e-05
-0.00527083 0.00256419 1e-05
-0.00507675 0.00255912 1e-05
-0.00488269 0.00255343 1e-05
-0.00468865 0.00254711 1e-05
-0.00449464 0.00253997 1e-05
-0.00430044 0.00253191 1e-05
-0.00411412 0.00252329 1e-05
-0.00392784 0.00251388 1e-05
-0.00374159 0.00250369 1e-05
-0.0035554 0.00249255 1e-05
-0.00336883 0.00248016 1e-05
-0.00318995 0.00246712 1e-05
-0.00301115 0.002453 1e-05
-0.00283245 0.00243775 1e-05
-0.00265386 0.00242121 1e-05
-0.00247443 0.00240315 1e-05
-0.0023027 0.00238426 1e-05
-0.00213114 0.00236384 1e-05
-0.00195982 0.00234154 1e-05
-0.00178875 0.00231738 1e-05
-0.00161577 0.00229106 1e-05
-0.00161567 0.00229104 1e-05
-0.00161557 0.00229103 1e-05
-0.00161547 0.00229101 1e-05
-0.00161538 0.00229099 1e-05
-0.00161528 0.00229098 1e-05
-0.0014505 0.00226407 1e-05
-0.00128614 0.00223481 1e-05
-0.00112219 0.00220326 1e-05
-0.000958692 0.00216947 1e-05
-0.000791418 0.00213237 1e-05
-0.000633135 0.00209426 1e-05
-0.000475556 0.00205333 1e-05
-0.000318719 0.00200964 1e-05
-0.000162835 0.00196267 1e-05
0 0.00190952 1e-05
3.73411e-05 0.00189632 1e-05
7.45821e-05 0.00188284 1e-05
0.000111725 0.00186909 1e-05
0.00014877 0.00185508 1e-05
0.00017908 0.00184338 1e-05
0.000248941 0.00181594 1e-05
0.000318392 0.00178748 1e-05
0.000387417 0.001758 1e-05
0.000456003 0.00172751 1e-05
0.000528387 0.00169413 1e-05
0.000634886 0.00164315 1e-05
0.000740278 0.00158992 1e-05
0.00084451 0.00153445 1e-05
0.00094762 0.00147693 1e-05
0.00101988 0.00143468 1e-05
0.00102808 0.00142973 1e-05
0.00103627 0.00142476 1e-05
0.00104445 0.00141977 1e-05
0.00105262 0.00141477 1e-05
0.00106088 0.00140969 1e-05
0.00116821 0.00134351 1e-05
0.00127404 0.00127495 1e-05
0.00137827 0.00120399 1e-05
0.00148099 0.00113086 1e-05
0.00159668 0.00104511 1e-05
0.00159685 0.00104498 1e-05
0.00159701 0.00104485 1e-05
0.00159718 0.00104472 1e-05
0.00159735 0.00104459 1e-05
0.00159752 0.00104445 1e-05
0.00169218 0.000970888 1e-05
0.00178544 0.000895555 1e-05
0.00187722 0.000818424 1e-05
0.00196758 0.000739639 1e-05
0.00203797 0.000676367 1e-05
0.00205804 0.000657871 1e-05
0.00207803 0.000639286 1e-05
0.00209793 0.000620611 1e-05
0.00211778 0.000601873 1e-05
0.00213833 0.000582352 1e-05
0.00219145 0.00053154 1e-05
0.00224408 0.000480212 1e-05
0.0022962 0.000428359 1e-05
0.00234777 0.000375975 1e-05
0.00239407 0.000328255 1e-05
0.00245192 0.000267785 1e-05
0.00250914 0.000206716 1e-05
0.00256573 0.000145064 1e-05
0.00262181 8.29448e-05 1e-05
0.00268334 1.36108e-05 1e-05
0.00268571 1.08886e-05 1e-05
0.00268807 8.16545e-06 1e-05
0.00269044 5.44128e-06 1e-05
0.0026928 2.7161e-06 1e-05
0.00269516 0 1e-05
0.00275906 -7.37367e-05 1e-05
0.00282234 -0.000148005 1e-05
0.00288498 -0.000222813 1e-05
0.00294695 -0.000298173 1e-05
0.00300402 -0.000368654 1e-05
0.00304973 -0.000425944 1e-05
0.00309514 -0.000483481 1e-05
0.00314023 -0.000541259 1e-05
0.00318508 -0.000599232 1e-05
0.00323259 -0.00066122 1e-05
0.00325063 -0.000684995 1e-05
0.00326861 -0.000708809 1e-05
0.00328655 -0.000732664 1e-05
0.00330443 -0.000756558 1e-05
0.00332196 -0.00078009 1e-05
0.0033901 -0.000871877 1e-05
0.00345765 -0.000964107 1e-05
0.00352456 -0.00105679 1e-05
0.00359094 -0.00114986 1e-05
0.0036538 -0.00123896 1e-05
0.00368026 -0.00127686 1e-05
0.00370665 -0.00131482 1e-05
0.00373296 -0.00135282 1e-05
0.00375922 -0.00139087 1e-05
0.00378611 -0.00142995 1e-05
0.00383008 -0.00149405 1e-05
0.00387384 -0.0015583 1e-05
0.00391738 -0.0016227 1e-05
0.0039607 -0.00168725 1e-05
0.00400284 -0.00175044 1e-05
0.00407106 -0.00185328 1e-05
0.00413886 -0.0019564 1e-05
0.00420624 -0.0020598 1e-05
0.00427332 -0.00216338 1e-05
0.00434393 -0.00227307 1e-05
0.00434997 -0.00228252 1e-05
0.00435601 -0.00229197 1e-05
0.00436204 -0.00230142 1e-05
0.00436806 -0.00231087 1e-05
0.00437407 -0.0023203 1e-05
0.00445492 -0.00244725 1e-05
0.00453532 -0.00257449 1e-05
0.00461532 -0.00270197 1e-05
0.00469496 -0.00282968 1e-05
0.00477284 -0.00295498 1e-05
0.00479949 -0.00299801 1e-05
0.00482611 -0.00304105 1e-05
0.00485271 -0.00308412 1e-05
0.0048793 -0.00312718 1e-05
0.00490609 -0.00317058 1e-05
0.00496672 -0.00326879 1e-05
0.0050272 -0.00336709 1e-05
0.00508753 -0.00346548 1e-05
0.00514772 -0.00356396 1e-05
0.00520737 -0.00366161 1e-05
0.00526042 -0.00374852 1e-05
0.00531343 -0.00383546 1e-05
0.0053664 -0.00392243 1e-05
0.0054194 -0.00400938 1e-05
0.00547262 -0.00409659 1e-05
0.00551559 -0.00416689 1e-05
0.00555853 -0.00423722 1e-05
0.00560143 -0.00430757 1e-05
0.00564432 -0.00437792 1e-05
0.00568714 -0.00444811 1e-05
0.00575842 -0.00456486 1e-05
0.00582975 -0.00468158 1e-05
0.00590113 -0.00479828 1e-05
0.00597264 -0.00491488 1e-05
0.00604356 -0.00503006 1e-05
0.00607981 -0.0050887 1e-05
0.00611607 -0.00514733 1e-05
0.00615234 -0.00520596 1e-05
0.00618863 -0.00526458 1e-05
0.00622503 -0.00532326 1e-05
0.00630381 -0.00545003 1e-05
0.00638278 -0.00557668 1e-05
0.00646195 -0.00570321 1e-05
0.00654139 -0.00582957 1e-05
0.00661893 -0.00595211 1e-05
0.00666283 -0.00602103 1e-05
0.00670678 -0.00608991 1e-05
0.00675078 -0.00615876 1e-05
0.00679487 -0.00622756 1e-05
0.00683934 -0.00629671 1e-05
0.00691123 -0.00640812 1e-05
0.00698337 -0.00651937 1e-05
0.00705577 -0.00663045 1e-05
0.00712846 -0.00674134 1e-05
0.00719878 -0.00684781 1e-05
0.00726947 -0.00695405 1e-05
0.00734037 -0.00706015 1e-05
0.0074115 -0.0071661 1e-05
0.00748295 -0.00727184 1e-05
0.00755592 -0.00737909 1e-05
0.00760136 -0.0074454 1e-05
0.00764693 -0.00751162 1e-05
0.00769263 -0.00757776 1e-05
0.00773846 -0.0076438 1e-05
0.00778313 -0.00770784 1e-05
0.00790091 -0.00787581 1e-05
0.00801946 -0.00804324 1e-05
0.00813878 -0.00821012 1e-05
0.0082591 -0.00837628 1e-05
0.00837203 -0.00853019 1e-05
0.00837972 -0.00854053 1e-05
0.00838742 -0.00855087 1e-05
0.00839511 -0.0085612 1e-05
0.00840282 -0.00857153 1e-05
0.00841054 -0.00858189 1e-05
0.00852154 -0.00873055 1e-05
0.00863335 -0.0088786 1e-05
0.00874601 -0.009026 1e-05
0.00885954 -0.00917274 1e-05
0.00896551 -0.00930785 1e-05
0.0090301 -0.00938914 1e-05
0.00909496 -0.00947023 1e-05
0.00916008 -0.0095511 1e-05
0.00922551 -0.00963173 1e-05
0.0092931 -0.00971438 1e-05
0.0093472 -0.00978001 1e-05
0.0094015 -0.00984548 1e-05
0.00945599 -0.00991078 1e-05
0.00951068 -0.00997592 1e-05
0.0095636 -0.0100386 1e-05
[...]
POINT_DATA 12278
 FIELD attributes 1
U 3 12278 float
9.72339 	0.381311 	0 9.77871 	0.305049 	0 9.83405 	0.228765 	0 9.8894 	0.152465 	0 9.94476 	0.0761532 	0 10 	0 	0
10.0671 	0.375483 	0 10.0537 	0.300387 	0 10.0403 	0.225271 	0 10.0268 	0.150141 	0 10.0134 	0.0750008 	0 10 	0 	0
10.0364 	0.141572 	0 10.0291 	0.113304 	0 10.0218 	0.085089 	0 10.0145 	0.0569263 	0 10.0071 	0.0288164 	0 10 	0 	0
10.0137 	0.111519 	0 10.011 	0.0892151 	0 10.0082 	0.0669108 	0 10.0055 	0.0446061 	0 10.0027 	0.0223012 	0 10 	0 	0
10.0097 	0.0196534 	0 10.0078 	0.0157227 	0 10.0058 	0.011792 	0 10.0039 	0.00786134 	0 10.0019 	0.00393066 	0 10 	0 	0
10.0102 	-0.0372875 	0 10.0082 	-0.02983 	0 10.0061 	-0.0223725 	0 10.0041 	-0.014915 	0 10.002 	-0.00745741 	0 10 	0 	0
10.0174 	-0.148997 	0 10.0139 	-0.119197 	0 10.0105 	-0.0893967 	0 10.007 	-0.0595953 	0 10.0035 	-0.0297933 	0 10 	0 	0
10.0362 	-0.265901 	0 10.029 	-0.212721 	0 10.0217 	-0.159534 	0 10.0145 	-0.106342 	0 10.0072 	-0.053146 	0 10 	0 	0
10.0563 	-0.387167 	0 10.045 	-0.309734 	0 10.0338 	-0.23228 	0 10.0225 	-0.15481 	0 10.0112 	-0.0773282 	0 10 	0 	0
8.30133 	-0.114495 	0 8.4287 	-0.091596 	0 8.55659 	-0.0686962 	0 8.68498 	-0.0457957 	0 8.81385 	-0.0228949 	0 8.94315 	0 	0
9.72339 	0.381311 	0 9.5415 	0.555241 	0 9.39671 	0.663651 	0 9.26203 	0.754271 	0 9.2183 	0.780385 	0 8.95344 	1.27614 	0 8.70578 	1.91036 	0 8.48173 	2.72184 	0 8.46724 	2.67123 	0 8.47252 	2.45986 	0 8.50117 	2.35314 	0 8.52498 	2.2443 	0 8.51221 	2.16311 	0 8.42487 	2.14738 	0 8.30214 	2.12559 	0 8.30117 	1.9821 	0 8.28715 	1.83798 	0 8.21181 	1.72569 	0 8.035 	1.67507 	0 7.86306 	1.62575 	0 7.68323 	1.56759 	0 7.50177 	1.50875 	0 7.42793 	1.45839 	0 7.36148 	1.40771 	0 7.27865 	1.34671 	0 7.22249 	1.32376 	0 7.16614 	1.3007 	0 7.10958 	1.27753 	0 7.07928 	1.2544 	0 7.05291 	1.23121 	0 6.97394 	1.13838 	0 6.88841 	1.05226 	0 6.79883 	0.980329 	0 6.71191 	0.932082 	0 6.6228 	0.883658 	0 6.55089 	0.833774 	0 6.49229 	0.787587 	0 6.44246 	0.743855 	0 6.3887 	0.69909 	0 6.31694 	0.642265 	0 6.31477 	0.64017 	0 6.3132 	0.638346 	0 6.31172 	0.636559 	0 6.31023 	0.63477 	0 6.30868 	0.632931 	0 6.27132 	0.597061 	0 6.23151 	0.560863 	0 6.18922 	0.524331 	0 6.1444 	0.487463 	0 6.10943 	0.456252 	0 6.07602 	0.420969 	0 6.04571 	0.390995 	0 6.01701 	0.364551 	0 5.99443 	0.3396 	0 5.97316 	0.315196 	0 5.95246 	0.289062 	0 5.92972 	0.262718 	0 5.91348 	0.241657 	0 5.9034 	0.222653 	0 5.89182 	0.203586 	0 5.87917 	0.183519 	0 5.86498 	0.163352 	0 5.85627 	0.143788 	0 5.85337 	0.127399 	0 5.84919 	0.110984 	0 5.84297 	0.0943489 	0 5.8355 	0.0776725 	0 5.83341 	0.0589701 	0 5.83631 	0.0430961 	0 5.838 	0.0272226 	0 5.83717 	0.0119248 	0 5.83535 	-0.00344198 	0 5.83921 	-0.0225435 	0 5.84732 	-0.0400351 	0 5.85425 	-0.0574726 	0 5.85861 	-0.0735397 	0 5.86185 	-0.0895808 	0 5.87121 	-0.110969 	0 5.88468 	-0.132507 	0 5.89665 	-0.153974 	0 5.9065 	-0.17334 	0 5.91507 	-0.192637 	0 5.92939 	-0.218097 	0 5.94828 	-0.247053 	0 5.96527 	-0.275869 	0 5.98121 	-0.302101 	0 5.99551 	-0.328185 	0 6.01454 	-0.359799 	0 6.03865 	-0.400963 	0 6.06025 	-0.441884 	0 6.08259 	-0.480348 	0 6.10479 	-0.52097 	0 6.1301 	-0.567627 	0 6.15457 	-0.6197 	0 6.1787 	-0.679511 	0 6.20608 	-0.738505 	0 6.23743 	-0.811897 	0 6.2649 	-0.884753 	0 6.28855 	-0.957071 	0 6.30867 	-1.02978 	0 6.30868 	-1.02983 	0 6.3087 	-1.0299 	0 6.30871 	-1.02997 	0 6.30873 	-1.03003 	0 6.30875 	-1.0301 	0 6.33254 	-1.12728 	0 6.35108 	-1.22235 	0 6.36449 	-1.31536 	0 6.37524 	-1.41404 	0 6.38852 	-1.53824 	0 6.40632 	-1.66398 	0 6.41788 	-1.78763 	0 6.40576 	-1.93014 	2.62061e-20 6.36938 	-2.07911 	5.37224e-20 6.31923 	-2.23388 	8.12246e-20 6.31102 	-2.28434 	2.33712e-20 6.29884 	-2.33168 	5.82136e-21 6.28248 	-2.3757 	3.12523e-20 6.26555 	-2.41946 	5.73037e-20 6.25121 	-2.45516 	7.9183e-20 6.22482 	-2.55101 	1.78947e-19 6.19648 	-2.6463 	2.82872e-19 6.1662 	-2.74101 	3.90931e-19 6.12005 	-2.82215 	2.74308e-19 6.06351 	-2.90249 	6.24828e-20 5.98355 	-3.02215 	4.9266e-20 5.89838 	-3.13884 	3.61821e-20 5.80152 	-3.23669 	8.566e-21 5.70025 	-3.33259 	-1.80505e-20 5.62533 	-3.39916 	-3.61912e-20 5.61619 	-3.40845 	-3.59834e-20 5.60702 	-3.41774 	-3.57607e-20 5.59777 	-3.42638 	-3.69106e-20 5.58839 	-3.43333 	-4.17136e-20 5.57887 	-3.44035 	-4.65624e-20 5.45897 	-3.53656 	-2.8294e-20 5.33376 	-3.63081 	-9.45281e-21 5.20772 	-3.70776 	1.23947e-22 5.0815 	-3.76665 	-1.90254e-22 4.93248 	-3.83197 	7.2897e-23 4.93223 	-3.8321 	4.17153e-23 4.93198 	-3.83224 	1.05332e-23 4.93176 	-3.83234 	1.84914e-23 4.93154 	-3.83241 	4.64156e-23 4.93132 	-3.83249 	7.43485e-23 4.80561 	-3.88183 	1.12766e-21 4.6758 	-3.92957 	2.48541e-21 4.54887 	-3.96607 	4.21336e-21 4.43124 	-3.98317 	6.33854e-21 4.33591 	-3.99554 	8.2093e-21 4.30558 	-4.0032 	1.33549e-20 4.27504 	-4.01078 	1.85384e-20 4.24974 	-4.01249 	9.22007e-21 4.22457 	-4.01385 	-8.27599e-22 4.19828 	-4.01521 	-1.12451e-20 4.12446 	-4.02252 	-6.36221e-20 4.04947 	-4.0293 	-1.15631e-19 3.97344 	-4.03541 	-1.65824e-19 3.90927 	-4.02988 	-1.01576e-19 3.85045 	-4.0245 	-4.30501e-20 3.77288 	-4.02664 	4.17033e-21 3.69541 	-4.0259 	4.19865e-20 3.62353 	-4.01378 	3.41888e-20 3.55057 	-4.00119 	2.66619e-20 3.46853 	-3.9867 	1.8635e-20 3.46519 	-3.98629 	1.92615e-20 3.46184 	-3.98587 	1.98881e-20 3.4585 	-3.98545 	2.05149e-20 3.45534 	-3.98472 	2.10409e-20 3.45227 	-3.98388 	2.15255e-20 3.38414 	-3.97186 	1.4125e-20 3.31395 	-3.95771 	7.41675e-21 3.24255 	-3.94285 	7.03131e-22 3.17076 	-3.91579 	6.16945e-21 3.10313 	-3.88902 	1.23528e-20 3.06104 	-3.87901 	3.47242e-20 3.01865 	-3.86762 	5.06235e-20 2.97705 	-3.84866 	2.33619e-20 2.93505 	-3.82947 	-3.84281e-21 2.88985 	-3.80878 	-3.27691e-20 2.87172 	-3.80222 	-3.88752e-20 2.85351 	-3.79561 	-4.49835e-20 2.83521 	-3.78895 	-5.1094e-20 2.81701 	-3.77988 	-5.729e-20 2.79908 	-3.77036 	-6.34046e-20 2.74568 	-3.7493 	-1.0713e-19 2.69145 	-3.72775 	-1.50976e-19 2.63665 	-3.69711 	-1.46193e-19 2.58224 	-3.65973 	-8.81861e-20 2.52971 	-3.62362 	-3.27071e-20 2.51279 	-3.6147 	2.05674e-21 2.49582 	-3.60558 	3.52184e-20 2.47995 	-3.59318 	2.99652e-20 2.46402 	-3.58075 	2.47472e-20 2.4476 	-3.56794 	1.9429e-20 2.41705 	-3.54885 	5.65478e-20 2.38626 	-3.52957 	9.35872e-20 2.3552 	-3.51009 	1.30545e-19 2.3252 	-3.48558 	1.03451e-19 2.2958 	-3.46114 	7.22978e-20 2.25887 	-3.43545 	4.24495e-20 2.22149 	-3.40944 	1.25689e-20 2.18692 	-3.37658 	-2.89664e-21 2.15212 	-3.34338 	-1.8101e-20 2.11499 	-3.30806 	-3.42046e-20 2.11128 	-3.30519 	-3.17795e-20 2.10756 	-3.30233 	-2.93572e-20 2.10384 	-3.29946 	-2.69378e-20 2.10034 	-3.29603 	-3.39932e-20 2.09685 	-3.29259 	-4.13458e-20 2.06014 	-3.26031 	-1.64618e-19 2.02441 	-3.22598 	-2.56607e-19 1.98936 	-3.18987 	-2.99655e-19 1.95712 	-3.14898 	-1.93319e-19 1.92536 	-3.10876 	-8.89848e-20 1.91676 	-3.09907 	-7.78952e-20 1.90813 	-3.08938 	-6.68014e-20 1.9008 	-3.07854 	-5.65314e-20 1.89376 	-3.06743 	-4.64521e-20 1.88667 	-3.05624 	-3.62971e-20 1.86474 	-3.03086 	-1.17565e-20 1.8427 	-3.00538 	1.28054e-20 1.82111 	-2.97921 	2.99827e-20 1.80207 	-2.95024 	1.21469e-20 1.78318 	-2.92149 	-5.52532e-21 1.76979 	-2.90253 	-2.11424e-20 1.75637 	-2.88355 	-3.67478e-20 1.74513 	-2.86326 	-1.81159e-20 1.73483 	-2.84246 	1.47138e-20 1.72453 	-2.82162 	4.765e-20 1.7122 	-2.80442 	1.21451e-20 1.69985 	-2.78721 	-2.33096e-20 1.68814 	-2.76952 	-3.49292e-20 1.67806 	-2.75067 	1.29536e-20 1.66802 	-2.73187 	6.07051e-20 1.65469 	-2.70767 	1.97467e-19 1.64138 	-2.6835 	3.34167e-19 1.63046 	-2.65855 	2.96355e-19 1.62131 	-2.63312 	1.33609e-19 1.61239 	-2.60808 	-2.78287e-20 1.60459 	-2.59472 	-5.73817e-20 1.59679 	-2.58136 	-8.69427e-20 1.5898 	-2.56766 	-8.97894e-20 1.58392 	-2.5535 	-5.62894e-20 1.57806 	-2.53935 	-2.27627e-20 1.56807 	-2.51483 	-2.46242e-20 1.55819 	-2.49041 	-2.65255e-20 1.55025 	-2.46586 	-1.93305e-20 1.54481 	-2.44117 	-4.99872e-22 1.53974 	-2.41736 	1.77499e-20 1.53309 	-2.40288 	2.97233e-20 1.52648 	-2.38841 	4.1692e-20 1.52117 	-2.37373 	4.57238e-20 1.51682 	-2.3589 	4.41007e-20 1.51249 	-2.34403 	4.24476e-20 1.50725 	-2.32429 	2.55689e-20 1.50215 	-2.30467 	8.6647e-21 1.49811 	-2.28526 	-3.13001e-21 1.49676 	-2.26621 	-1.1181e-21 1.49566 	-2.24805 	8.14662e-22 1.4887 	-2.22753 	7.6247e-20 1.48183 	-2.20712 	1.51907e-19 1.47757 	-2.18686 	1.25777e-19 1.47423 	-2.16676 	6.78014e-20 1.47101 	-2.14648 	8.99876e-21 1.46981 	-2.13593 	-2.33704e-20 1.46866 	-2.12544 	-5.56959e-20 1.46778 	-2.11512 	-8.20245e-20 1.46931 	-2.10623 	-3.64958e-20 1.47087 	-2.09766 	7.88478e-21 1.46374 	-2.06745 	4.60788e-21 1.45691 	-2.03751 	1.3132e-21 1.45615 	-2.01094 	-2.34655e-20 1.45671 	-1.98524 	-5.17423e-20 1.45932 	-1.96227 	-7.4881e-20 1.45884 	-1.96031 	-6.85545e-20 1.45837 	-1.95835 	-6.22818e-20 1.45832 	-1.9566 	-6.70176e-20 1.45828 	-1.95485 	-7.17512e-20 1.45823 	-1.9531 	-7.6495e-20 1.45635 	-1.92817 	-2.09546e-19 1.45485 	-1.90355 	-3.41863e-19 1.45407 	-1.87949 	-4.46627e-19 1.45832 	-1.85927 	-1.91204e-19 1.46269 	-1.8409 	4.70975e-20 1.46054 	-1.826 	1.11163e-19 1.45851 	-1.8112 	1.75016e-19 1.45943 	-1.79852 	1.4232e-19 1.46048 	-1.78595 	1.09725e-19 1.46168 	-1.77312 	7.63116e-20 1.46261 	-1.76355 	6.73817e-20 1.46361 	-1.75405 	5.84737e-20 1.4647 	-1.74461 	4.95879e-20 1.46731 	-1.73643 	5.16617e-20 1.46998 	-1.72866 	5.41785e-20 1.46947 	-1.70539 	2.94881e-20 1.46931 	-1.68242 	4.73589e-21 1.47222 	-1.66186 	2.02462e-20 1.47682 	-1.64239 	4.53324e-20 1.48276 	-1.62528 	6.85634e-20 1.48275 	-1.62122 	6.74466e-20 1.48283 	-1.61723 	6.76102e-20 1.48342 	-1.61361 	7.51576e-20 1.48402 	-1.61001 	8.27031e-20 1.48464 	-1.60637 	9.03365e-20 1.48735 	-1.59063 	1.3973e-19 1.49032 	-1.57508 	1.89001e-19 1.49356 	-1.55973 	2.38147e-19 1.49874 	-1.54623 	1.68536e-19 1.50416 	-1.53405 	8.2229e-20 1.50582 	-1.51456 	1.55567e-19 1.50831 	-1.49581 	2.03656e-19 1.51293 	-1.47899 	1.61816e-19 1.5179 	-1.46243 	1.20506e-19 1.5236 	-1.44494 	7.67341e-20 1.52363 	-1.44487 	7.6474e-20 1.52365 	-1.4448 	7.62139e-20 1.52368 	-1.44473 	7.59538e-20 1.52371 	-1.44467 	7.62995e-20 1.52374 	-1.44461 	7.69107e-20 1.52814 	-1.42758 	1.26636e-19 1.53295 	-1.41083 	1.74679e-19 1.53813 	-1.39434 	2.22331e-19 1.5449 	-1.37962 	1.8426e-19 1.552 	-1.3667 	1.17132e-19 1.55533 	-1.3491 	2.03159e-19 1.55954 	-1.33238 	2.39495e-19 1.56519 	-1.31724 	1.74751e-19 1.57117 	-1.30233 	1.10222e-19 1.57752 	-1.28879 	3.78375e-20 1.57775 	-1.2878 	3.75865e-20 1.57802 	-1.28686 	3.67585e-20 1.57834 	-1.28598 	3.52029e-20 1.57866 	-1.2851 	3.36469e-20 1.57898 	-1.28421 	3.2082e-20 1.5842 	-1.27026 	-1.34409e-20 1.58972 	-1.25651 	-5.88846e-20 1.59554 	-1.24296 	-1.04246e-19 1.60224 	-1.23061 	-8.93472e-20 1.6093 	-1.21987 	-3.00317e-20 1.61375 	-1.20436 	-7.54168e-20 1.61851 	-1.18904 	-1.21215e-19 1.62459 	-1.17566 	-1.03739e-19 1.63189 	-1.16301 	-6.09351e-20 1.63992 	-1.15163 	3.29773e-22 1.6422 	-1.1448 	2.87754e-20 1.64481 	-1.13848 	2.82642e-20 1.64767 	-1.13252 	7.11741e-21 1.6506 	-1.12661 	-1.39787e-20 1.65373 	-1.12044 	-3.60744e-20 1.65737 	-1.11361 	-6.80243e-20 1.66111 	-1.10683 	-9.98624e-20 1.66493 	-1.1001 	-1.31588e-19 1.66897 	-1.09381 	-1.31145e-19 1.67321 	-1.08832 	-7.98816e-20 1.67836 	-1.07458 	-1.11918e-19 1.68439 	-1.06133 	-1.36151e-19 1.69172 	-1.04892 	-1.45571e-19 1.69991 	-1.03831 	-1.35242e-19 1.70799 	-1.02834 	-1.25253e-19 1.71377 	-1.01484 	-2.75554e-19 1.72004 	-1.00214 	-3.50191e-19 1.72692 	-0.990701 	-2.9612e-19 1.73407 	-0.979421 	-2.42556e-19 1.74237 	-0.969343 	-1.16079e-19 1.74446 	-0.965011 	-8.25932e-20 1.74671 	-0.961129 	-8.48067e-20 1.74902 	-0.957381 	-9.66585e-20 1.75135 	-0.953651 	-1.08462e-19 1.75382 	-0.949777 	-1.20723e-19 1.75869 	-0.942414 	-1.24336e-19 1.76367 	-0.935118 	-1.27921e-19 1.76878 	-0.927889 	-1.31478e-19 1.77402 	-0.92095 	-1.29666e-19 1.77937 	-0.915179 	-1.05257e-19 1.78542 	-0.903248 	-1.32867e-19 1.79247 	-0.89189 	-1.44806e-19 1.80041 	-0.881037 	-1.43578e-19 1.80873 	-0.871971 	-1.02962e-19 1.81701 	-0.86344 	-6.09365e-20 1.82362 	-0.851748 	-1.64896e-19 1.8305 	-0.840224 	-2.66872e-19 1.83766 	-0.830531 	-2.25558e-19 1.84587 	-0.821424 	-1.27944e-19 1.85456 	-0.812979 	4.4148e-23 1.86117 	-0.80243 	1.42355e-22 1.86794 	-0.793513 	1.07765e-22 1.8749 	-0.784739 	6.91593e-23 1.88206 	-0.776065 	3.01256e-23 1.89043 	-0.766303 	-1.4802e-23 1.89081 	-0.76588 	7.21488e-22 1.8912 	-0.765457 	1.45729e-21 1.89159 	-0.765034 	2.1926e-21 1.89197 	-0.764612 	2.92742e-21 1.89235 	-0.764273 	4.29584e-22 1.89983 	-0.754818 	-2.5328e-20 1.90762 	-0.745534 	-4.71969e-20 1.91563 	-0.736362 	-6.88874e-20 1.92387 	-0.727313 	-8.98785e-20 1.93177 	-0.720326 	-3.11942e-20 1.93866 	-0.71037 	-2.11237e-20 1.94623 	-0.700852 	-1.39175e-20 1.95461 	-0.691869 	-1.04044e-20 1.96278 	-0.684598 	-1.59801e-20 1.97092 	-0.67773 	-2.24453e-20 1.97824 	-0.668023 	5.39461e-20 1.98577 	-0.658418 	1.3045e-19 1.9932 	-0.650331 	1.32359e-19 2.00151 	-0.643385 	6.57223e-20 2.00985 	-0.636642 	1.63144e-22 2.01756 	-0.627189 	9.69905e-23 2.02509 	-0.618814 	-1.11913e-20 2.03252 	-0.611273 	-3.10368e-20 2.04012 	-0.603811 	-5.08587e-20 2.04859 	-0.597171 	-6.38946e-20 2.05549 	-0.589473 	-1.06431e-19 2.06201 	-0.582968 	-1.09984e-19 2.06867 	-0.57652 	-1.13597e-19 2.07547 	-0.57013 	-1.17268e-19 2.08343 	-0.562856 	-1.21552e-19 2.08419 	-0.562184 	-1.22746e-19 2.08496 	-0.561514 	-1.2394e-19 2.08574 	-0.560844 	-1.25133e-19 2.08651 	-0.560175 	-1.26325e-19 2.08721 	-0.559632 	-1.22282e-19 2.09468 	-0.552331 	-9.43155e-20 2.10237 	-0.545173 	-6.50723e-20 2.11024 	-0.538085 	-3.5867e-20 2.11828 	-0.531065 	-6.69981e-21 2.12555 	-0.525575 	1.79215e-22 2.1327 	-0.51781 	6.74861e-20 2.14053 	-0.510828 	8.64241e-20 2.14854 	-0.503936 	1.03562e-19 2.15619 	-0.49786 	8.43259e-20 2.16321 	-0.492941 	1.48986e-20 2.17059 	-0.485419 	-5.50411e-20 2.1782 	-0.478044 	-1.18768e-19 2.18627 	-0.471404 	-1.35e-19 2.19319 	-0.466539 	-6.72697e-20 2.20017 	-0.461758 	-7.24668e-23 2.20775 	-0.454479 	-3.95662e-23 2.21551 	-0.447257 	-6.83778e-24 2.22263 	-0.441393 	0 2.22947 	-0.436676 	0 2.23638 	-0.432033 	0 2.24413 	-0.424995 	0 2.2518 	-0.418277 	0 2.2583 	-0.413042 	0 2.265 	-0.408266 	-1.01443e-20 2.2718 	-0.403761 	-2.51662e-20 2.27969 	-0.396962 	-6.23063e-21 2.2866 	-0.391325 	-6.35453e-21 2.2931 	-0.386275 	-1.58204e-20 2.29972 	-0.381289 	-2.67347e-20 2.30639 	-0.376922 	-6.64763e-20 2.3141 	-0.370609 	-2.84799e-20 2.32045 	-0.365708 	-3.02693e-20 2.32692 	-0.36084 	-3.20304e-20 2.33351 	-0.356005 	-3.37635e-20 2.3401 	-0.351488 	-4.6468e-20 2.34634 	-0.346628 	-3.69165e-20 2.35195 	-0.342415 	-3.83664e-20 2.35765 	-0.338225 	-3.9795e-20 2.36344 	-0.334061 	-4.12022e-20 2.37029 	-0.329243 	-4.28147e-20 2.37081 	-0.328885 	-4.26958e-20 2.37134 	-0.328528 	-4.2577e-20 2.37186 	-0.32817 	-4.24583e-20 2.37239 	-0.327813 	-4.23398e-20 2.37285 	-0.32751 	-4.25183e-20 2.37901 	-0.32292 	-4.9222e-20 2.38528 	-0.318384 	-5.37709e-20 2.39165 	-0.313876 	-5.82428e-20 2.39813 	-0.309396 	-6.26383e-20 2.40377 	-0.305669 	-3.89647e-20 2.4101 	-0.300953 	-7.51715e-20 2.41626 	-0.296593 	-8.73044e-20 2.42253 	-0.292258 	-9.93786e-20 2.4289 	-0.287949 	-1.11394e-19 2.43354 	-0.284962 	-7.13028e-20 2.44012 	-0.280178 	-1.1859e-19 2.44616 	-0.275991 	-1.21117e-19 2.4523 	-0.271827 	-1.23597e-19 2.45819 	-0.267922 	-1.18999e-19 2.46216 	-0.265359 	-7.53444e-20 2.46877 	-0.260742 	-1.17873e-19 2.47494 	-0.256537 	-1.2802e-19 2.48094 	-0.252542 	-1.22415e-19 2.48588 	-0.24928 	-9.48004e-20 2.48961 	-0.246822 	-4.31992e-20 2.4962 	-0.242408 	4.31576e-20 2.50259 	-0.238188 	1.03868e-19 2.50843 	-0.234359 	1.09363e-19 2.51241 	-0.23167 	5.03698e-20 2.51589 	-0.229315 	-2.66956e-20 2.52243 	-0.225101 	-1.75922e-20 2.52908 	-0.220906 	-8.49875e-21 2.53459 	-0.217322 	8.6691e-21 2.53777 	-0.215054 	2.59573e-20 2.54101 	-0.2128 	4.32204e-20 2.54749 	-0.208781 	-4.33233e-20 2.55407 	-0.20478 	-1.2988e-19 2.55906 	-0.201558 	-1.41242e-19 2.56198 	-0.199391 	-7.10813e-20 2.56495 	-0.197236 	-1.01887e-21 2.57135 	-0.193408 	-1.05335e-22 2.57785 	-0.189596 	7.87407e-22 2.58236 	-0.186711 	-1.56688e-20 2.58502 	-0.184642 	-4.94153e-20 2.58772 	-0.182583 	-8.31368e-20 2.59404 	-0.178943 	-4.76813e-20 2.60045 	-0.175316 	-1.22417e-20 2.60452 	-0.17274 	-8.54659e-21 2.60691 	-0.170767 	-2.59301e-20 2.60935 	-0.168803 	-4.32979e-20 2.61556 	-0.165345 	-2.59874e-20 2.62187 	-0.161902 	-8.7112e-21 2.62548 	-0.159624 	-9.45559e-21 2.62767 	-0.157728 	-2.60535e-20 2.62984 	-0.155856 	-4.33788e-20 2.63595 	-0.152577 	-1.64885e-19 2.64159 	-0.149522 	-2.61784e-19 2.64504 	-0.147363 	-2.57094e-19 2.6473 	-0.145484 	-1.64747e-19 2.6492 	-0.143703 	-4.33593e-20 2.6552 	-0.140597 	-2.59814e-20 2.6602 	-0.13789 	-8.62106e-21 2.66348 	-0.135846 	8.70884e-21 2.66583 	-0.133999 	2.13082e-20 2.66747 	-0.132307 	3.02502e-20 2.67334 	-0.129368 	9.13183e-20 2.67773 	-0.126971 	1.1869e-19 2.68085 	-0.125039 	1.17016e-19 2.68329 	-0.123236 	9.21101e-20 2.68466 	-0.12163 	3.1674e-20 2.6904 	-0.118855 	2.32321e-20 2.69421 	-0.116733 	1.48064e-20 2.69715 	-0.114909 	6.38573e-21 2.69969 	-0.11316 	0 2.70081 	-0.111637 	0 2.70641 	-0.109021 	0 2.70966 	-0.107143 	1.47196e-20 2.71244 	-0.105424 	3.25499e-20 2.71506 	-0.103736 	5.0365e-20 2.71593 	-0.102295 	6.81069e-20 2.7214 	-0.0998322 	1.90103e-19 2.72412 	-0.0981697 	1.93619e-19 2.72674 	-0.0965515 	1.91092e-19 2.7294 	-0.0949365 	1.88615e-19 2.73007 	-0.0935693 	7.02136e-20 2.73521 	-0.0913065 	5.31995e-20 2.73762 	-0.0897829 	3.62386e-20 2.74008 	-0.0882622 	1.92695e-20 2.74258 	-0.0867442 	2.29223e-21 2.74326 	-0.0854283 	1.46993e-20 2.74794 	-0.0833823 	-4.34221e-24 2.7502 	-0.081953 	-2.98881e-23 2.7525 	-0.0805261 	-5.54238e-23 2.75483 	-0.0791017 	-8.09493e-23 2.75552 	-0.0778414 	6.38958e-21 2.75978 	-0.0759904 	-5.08102e-20 2.76189 	-0.0746518 	-4.95111e-20 2.76403 	-0.0733152 	-4.82394e-20 2.76621 	-0.0719807 	-4.69952e-20 2.7669 	-0.0707792 	-5.6442e-21 2.77077 	-0.0691037 	8.55953e-23 2.77273 	-0.0678521 	6.04891e-23 2.77472 	-0.0666023 	3.53732e-23 2.77675 	-0.0653543 	1.02476e-23 2.77743 	-0.0642135 	0 2.78093 	-0.0626959 	1.11895e-20 2.78275 	-0.0615278 	3.75129e-20 2.78459 	-0.0603612 	6.38274e-20 2.78647 	-0.0591961 	9.01333e-20 2.78715 	-0.0581172 	1.07495e-19 2.79031 	-0.056742 	1.73101e-19 2.79199 	-0.0556537 	1.72023e-19 2.7937 	-0.0545668 	1.70972e-19 2.79544 	-0.0534812 	1.69949e-19 2.79609 	-0.0524647 	1.02484e-19 2.79895 	-0.0512176 	8.75804e-20 2.80049 	-0.0502058 	5.31469e-20 2.80207 	-0.049195 	1.8708e-20 2.80367 	-0.0481854 	-1.57363e-20 2.80431 	-0.047231 	-4.66903e-20 2.80688 	-0.0460997 	-9.02129e-20 2.8083 	-0.0451607 	-8.90049e-20 2.80974 	-0.0442227 	-8.78308e-20 2.81121 	-0.0432856 	-8.66904e-20 2.81182 	-0.0423927 	-3.70498e-20 2.81413 	-0.0413659 	-4.95367e-20 2.81543 	-0.0404963 	-3.1716e-20 2.81675 	-0.0396276 	-1.39132e-20 2.8181 	-0.0387596 	3.87181e-21 2.81867 	-0.037927 	4.31039e-20 2.82076 	-0.0369948 	4.98618e-20 2.82194 	-0.0361913 	6.73328e-20 2.82314 	-0.0353884 	8.47956e-20 2.82437 	-0.0345862 	1.0225e-19 2.82491 	-0.0338123 	1.22065e-19 2.82678 	-0.0329659 	1.46229e-19 2.82785 	-0.032225 	1.37006e-19 2.82895 	-0.0314847 	1.27805e-19 2.83006 	-0.0307449 	1.18625e-19 2.83055 	-0.030028 	8.16883e-20 2.83224 	-0.0292594 	5.80647e-20 2.83321 	-0.028578 	3.23165e-20 2.8342 	-0.0278969 	6.56654e-21 2.83521 	-0.0272164 	-1.91853e-20 2.83565 	-0.0265544 	-4.10464e-20 2.83717 	-0.0258566 	-5.61652e-20 2.83804 	-0.0252313 	-3.83912e-20 2.83894 	-0.0246063 	-2.06432e-20 2.83985 	-0.0239817 	-2.92128e-21 2.84023 	-0.0233724 	4.84829e-20 2.8416 	-0.0227392 	1.0232e-19 2.84239 	-0.0221669 	1.1e-19 2.84319 	-0.0215949 	1.17724e-19 2.84401 	-0.0210232 	1.25491e-19 2.84433 	-0.0204641 	8.86216e-20 2.84558 	-0.0198899 	7.17989e-20 2.84628 	-0.0193675 	6.32552e-20 2.84699 	-0.0188454 	5.47074e-20 2.84773 	-0.0183235 	4.61555e-20 2.84798 	-0.0178122 	3.76062e-20 2.84912 	-0.017292 	1.44092e-20 2.84974 	-0.0168166 	1.47569e-20 2.85038 	-0.0163413 	1.50821e-20 2.85103 	-0.0158662 	1.53846e-20 2.85121 	-0.0154002 	4.14745e-20 2.85227 	-0.0149296 	3.98578e-20 2.8