# vtk DataFile Version 2.0
track0
ASCII
DATASET POLYDATA
POINTS 12278 float
-0.0205 0.001 1e-05
-0.02052 0.000999216 1e-05
-0.02054 0.000998592 1e-05
-0.02056 0.000998126 1e-05
-0.02058 0.000997818 1e-05
-0.0206 0.000997665 1e-05
-0.0205 0.00367778 1e-05
-0.02052 0.00367703 1e-05
-0.02054 0.00367643 1e-05
-0.02056 0.00367599 1e-05
-0.02058 0.00367569 1e-05
-0.0206 0.00367554 1e-05
-0.0205 0.00635556 1e-05
-0.02052 0.00635527 1e-05
-0.02054 0.00635505 1e-05
-0.02056 0.00635488 1e-05
-0.02058 0.00635476 1e-05
-0.0206 0.00635471 1e-05
-0.0205 0.00903333 1e-05
-0.02052 0.00903311 1e-05
-0.02054 0.00903293 1e-05
-0.02056 0.0090328 1e-05
-0.02058 0.00903271 1e-05
-0.0206 0.00903266 1e-05
-0.0205 0.0117111 1e-05
-0.02052 0.0117111 1e-05
-0.02054 0.011711 1e-05
-0.02056 0.011711 1e-05
-0.02058 0.011711 1e-05
-0.0206 0.011711 1e-05
-0.0205 0.0143889 1e-05
-0.02052 0.014389 1e-05
-0.02054 0.014389 1e-05
-0.02056 0.0143891 1e-05
-0.02058 0.0143891 1e-05
-0.0206 0.0143891 1e-05
-0.0205 0.0170667 1e-05
-0.02052 0.017067 1e-05
-0.02054 0.0170672 1e-05
-0.02056 0.0170674 1e-05
-0.02058 0.0170675 1e-05
-0.0206 0.0170676 1e-05
-0.0205 0.0197444 1e-05
-0.02052 0.019745 1e-05
-0.02054 0.0197454 1e-05
-0.02056 0.0197457 1e-05
-0.02058 0.0197459 1e-05
-0.0206 0.019746 1e-05
-0.0205 0.0224222 1e-05
-0.02052 0.022423 1e-05
-0.02054 0.0224236 1e-05
-0.02056 0.0224241 1e-05
-0.02058 0.0224244 1e-05
-0.0206 0.0224245 1e-05
-0.0205 0.0251 1e-05
-0.02052 0.0251003 1e-05
-0.02054 0.0251005 1e-05
-0.02056 0.0251007 1e-05
-0.02058 0.0251008 1e-05
-0.0206 0.0251008 1e-05
-0.0205 0.001 1e-05
-0.0203632 0.00100536 1e-05
-0.0202266 0.00101331 1e-05
-0.0200901 0.00102296 1e-05
-0.0200427 0.00102682 1e-05
-0.0198376 0.00104418 1e-05
-0.0196338 0.00107322 1e-05
-0.0194327 0.00111734 1e-05
-0.0192368 0.00118024 1e-05
-0.0190172 0.00124951 1e-05
-0.0189002 0.00128348 1e-05
-0.0187827 0.00131598 1e-05
-0.0186649 0.001347 1e-05
-0.0185469 0.001377 1e-05
-0.0183807 0.00141936 1e-05
-0.0182041 0.00146458 1e-05
-0.0180267 0.00150692 1e-05
-0.0178487 0.0015464 1e-05
-0.0176703 0.00158389 1e-05
-0.0174976 0.00161991 1e-05
-0.0172846 0.00166394 1e-05
-0.0170715 0.00170741 1e-05
-0.0168583 0.00175029 1e-05
-0.0166449 0.00179219 1e-05
-0.0163945 0.00184007 1e-05
-0.0163234 0.00185324 1e-05
-0.0162522 0.00186629 1e-05
-0.016181 0.00187921 1e-05
-0.0161097 0.00189201 1e-05
-0.0160387 0.0019046 1e-05
-0.0157586 0.0019535 1e-05
-0.0154779 0.00199931 1e-05
-0.0151968 0.00204225 1e-05
-0.0149154 0.00208283 1e-05
-0.0146381 0.00212134 1e-05
-0.0143838 0.00215527 1e-05
-0.0141293 0.00218766 1e-05
-0.0138747 0.00221855 1e-05
-0.0136198 0.00224797 1e-05
-0.0132934 0.00228369 1e-05
-0.0132791 0.00228515 1e-05
-0.0132648 0.0022866 1e-05
-0.0132504 0.00228805 1e-05
-0.0132361 0.0022895 1e-05
-0.0132214 0.00229098 1e-05
-0.0129776 0.00231543 1e-05
-0.0127337 0.00233865 1e-05
-0.0124897 0.00236061 1e-05
-0.0122456 0.00238129 1e-05
-0.0120025 0.00240058 1e-05
-0.0117547 0.00241909 1e-05
-0.0115067 0.00243627 1e-05
-0.0112587 0.00245231 1e-05
-0.0110106 0.00246734 1e-05
-0.0107632 0.00248136 1e-05
-0.0105252 0.00249391 1e-05
-0.0102872 0.00250547 1e-05
-0.0100491 0.00251602 1e-05
-0.00981105 0.00252575 1e-05
-0.00957337 0.00253471 1e-05
-0.00934491 0.00254261 1e-05
-0.00911643 0.00254974 1e-05
-0.00888792 0.0025561 1e-05
-0.0086594 0.00256171 1e-05
-0.00843108 0.00256668 1e-05
-0.00821175 0.00257085 1e-05
-0.00799241 0.00257439 1e-05
-0.00777306 0.00257731 1e-05
-0.0075537 0.00257952 1e-05
-0.00733443 0.00258114 1e-05
-0.00712387 0.00258213 1e-05
-0.0069133 0.00258256 1e-05
-0.00670273 0.00258243 1e-05
-0.00649216 0.00258162 1e-05
-0.0062816 0.00258018 1e-05
-0.00607944 0.00257819 1e-05
-0.0058773 0.00257565 1e-05
-0.00567516 0.00257257 1e-05
-0.00547303 0.00256875 1e-05
-0.00527083 0.00256419 1e-05
-0.00507675 0.00255912 1e-05
-0.00488269 0.00255343 1e-05
-0.00468865 0.00254711 1e-05
-0.00449464 0.00253997 1e-05
-0.00430044 0.00253191 1e-05
-0.00411412 0.00252329 1e-05
-0.00392784 0.00251388 1e-05
-0.00374159 0.00250369 1e-05
-0.0035554 0.00249255 1e-05
-0.00336883 0.00248016 1e-05
-0.00318995 0.00246712 1e-05
-0.00301115 0.002453 1e-05
-0.00283245 0.00243775 1e-05
-0.00265386 0.00242121 1e-05
-0.00247443 0.00240315 1e-05
-0.0023027 0.00238426 1e-05
-0.00213114 0.00236384 1e-05
-0.00195982 0.00234154 1e-05
-0.00178875 0.00231738 1e-05
-0.00161577 0.00229106 1e-05
-0.00161567 0.00229104 1e-05
-0.00161557 0.00229103 1e-05
-0.00161547 0.00229101 1e-05
-0.00161538 0.00229099 1e-05
-0.00161528 0.00229098 1e-05
-0.0014505 0.00226407 1e-05
-0.00128614 0.00223481 1e-05
-0.00112219 0.00220326 1e-05
-0.000958692 0.00216947 1e-05
-0.000791418 0.00213237 1e-05
-0.000633135 0.00209426 1e-05
-0.000475556 0.00205333 1e-05
-0.000318719 0.00200964 1e-05
-0.000162835 0.00196267 1e-05
0 0.00190952 1e-05
3.73411e-05 0.00189632 1e-05
7.45821e-05 0.00188284 1e-05
0.000111725 0.00186909 1e-05
0.00014877 0.00185508 1e-05
0.00017908 0.00184338 1e-05
0.000248941 0.00181594 1e-05
0.000318392 0.00178748 1e-05
0.000387417 0.001758 1e-05
0.000456003 0.00172751 1e-05
0.000528387 0.00169413 1e-05
0.000634886 0.00164315 1e-05
0.000740278 0.00158992 1e-05
0.00084451 0.00153445 1e-05
0.00094762 0.00147693 1e-05
0.00101988 0.00143468 1e-05
0.00102808 0.00142973 1e-05
0.00103627 0.00142476 1e-05
0.00104445 0.00141977 1e-05
0.00105262 0.00141477 1e-05
0.00106088 0.00140969 1e-05
0.00116821 0.00134351 1e-05
0.00127404 0.00127495 1e-05
0.00137827 0.00120399 1e-05
0.00148099 0.00113086 1e-05
0.00159668 0.00104511 1e-05
0.00159685 0.00104498 1e-05
0.00159701 0.00104485 1e-05
0.00159718 0.00104472 1e-05
0.00159735 0.00104459 1e-05
0.00159752 0.00104445 1e-05
0.00169218 0.000970888 1e-05
0.00178544 0.000895555 1e-05
0.00187722 0.000818424 1e-05
0.00196758 0.000739639 1e-05
0.00203797 0.000676367 1e-05
0.00205804 0.000657871 1e-05
0.00207803 0.000639286 1e-05
0.00209793 0.000620611 1e-05
0.00211778 0.000601873 1e-05
0.00213833 0.000582352 1e-05
0.00219145 0.00053154 1e-05
0.00224408 0.000480212 1e-05
0.0022962 0.000428359 1e-05
0.00234777 0.000375975 1e-05
0.00239407 0.000328255 1e-05
0.00245192 0.000267785 1e-05
0.00250914 0.000206716 1e-05
0.00256573 0.000145064 1e-05
0.00262181 8.29448e-05 1e-05
0.00268334 1.36108e-05 1e-05
0.00268571 1.08886e-05 1e-05
0.00268807 8.16545e-06 1e-05
0.00269044 5.44128e-06 1e-05
0.0026928 2.7161e-06 1e-05
0.00269516 0 1e-05
0.00275906 -7.37367e-05 1e-05
0.00282234 -0.000148005 1e-05
0.00288498 -0.000222813 1e-05
0.00294695 -0.000298173 1e-05
0.00300402 -0.000368654 1e-05
0.00304973 -0.000425944 1e-05
0.00309514 -0.000483481 1e-05
0.00314023 -0.000541259 1e-05
0.00318508 -0.000599232 1e-05
0.00323259 -0.00066122 1e-05
0.00325063 -0.000684995 1e-05
0.00326861 -0.000708809 1e-05
0.00328655 -0.000732664 1e-05
0.00330443 -0.000756558 1e-05
0.00332196 -0.00078009 1e-05
0.0033901 -0.000871877 1e-05
0.00345765 -0.000964107 1e-05
0.00352456 -0.00105679 1e-05
0.00359094 -0.00114986 1e-05
0.0036538 -0.00123896 1e-05
0.00368026 -0.00127686 1e-05
0.00370665 -0.00131482 1e-05
0.00373296 -0.00135282 1e-05
0.00375922 -0.00139087 1e-05
0.00378611 -0.00142995 1e-05
0.00383008 -0.00149405 1e-05
0.00387384 -0.0015583 1e-05
0.00391738 -0.0016227 1e-05
0.0039607 -0.00168725 1e-05
0.00400284 -0.00175044 1e-05
0.00407106 -0.00185328 1e-05
0.00413886 -0.0019564 1e-05
0.00420624 -0.0020598 1e-05
0.00427332 -0.00216338 1e-05
0.00434393 -0.00227307 1e-05
0.00434997 -0.00228252 1e-05
0.00435601 -0.00229197 1e-05
0.00436204 -0.00230142 1e-05
0.00436806 -0.00231087 1e-05
0.00437407 -0.0023203 1e-05
0.00445492 -0.00244725 1e-05
0.00453532 -0.00257449 1e-05
0.00461532 -0.00270197 1e-05
0.00469496 -0.00282968 1e-05
0.00477284 -0.00295498 1e-05
0.00479949 -0.00299801 1e-05
0.00482611 -0.00304105 1e-05
0.00485271 -0.00308412 1e-05
0.0048793 -0.00312718 1e-05
0.00490609 -0.00317058 1e-05
0.00496672 -0.00326879 1e-05
0.0050272 -0.00336709 1e-05
0.00508753 -0.00346548 1e-05
0.00514772 -0.00356396 1e-05
0.00520737 -0.00366161 1e-05
0.00526042 -0.00374852 1e-05
0.00531343 -0.00383546 1e-05
0.0053664 -0.00392243 1e-05
0.0054194 -0.00400938 1e-05
0.00547262 -0.00409659 1e-05
0.00551559 -0.00416689 1e-05
0.00555853 -0.00423722 1e-05
0.00560143 -0.00430757 1e-05
0.00564432 -0.00437792 1e-05
0.00568714 -0.00444811 1e-05
0.00575842 -0.00456486 1e-05
0.00582975 -0.00468158 1e-05
0.00590113 -0.00479828 1e-05
0.00597264 -0.00491488 1e-05
0.00604356 -0.00503006 1e-05
0.00607981 -0.0050887 1e-05
0.00611607 -0.00514733 1e-05
0.00615234 -0.00520596 1e-05
0.00618863 -0.00526458 1e-05
0.00622503 -0.00532326 1e-05
0.00630381 -0.00545003 1e-05
0.00638278 -0.00557668 1e-05
0.00646195 -0.00570321 1e-05
0.00654139 -0.00582957 1e-05
0.00661893 -0.00595211 1e-05
0.00666283 -0.00602103 1e-05
0.00670678 -0.00608991 1e-05
0.00675078 -0.00615876 1e-05
0.00679487 -0.00622756 1e-05
0.00683934 -0.00629671 1e-05
0.00691123 -0.00640812 1e-05
0.00698337 -0.00651937 1e-05
0.00705577 -0.00663045 1e-05
0.00712846 -0.00674134 1e-05
0.00719878 -0.00684781 1e-05
0.00726947 -0.00695405 1e-05
0.00734037 -0.00706015 1e-05
0.0074115 -0.0071661 1e-05
0.00748295 -0.00727184 1e-05
0.00755592 -0.00737909 1e-05
0.00760136 -0.0074454 1e-05
0.00764693 -0.00751162 1e-05
0.00769263 -0.00757776 1e-05
0.00773846 -0.0076438 1e-05
0.00778313 -0.00770784 1e-05
0.00790091 -0.00787581 1e-05
0.00801946 -0.00804324 1e-05
0.00813878 -0.00821012 1e-05
0.0082591 -0.00837628 1e-05
0.00837203 -0.00853019 1e-05
0.00837972 -0.00854053 1e-05
0.00838742 -0.00855087 1e-05
0.00839511 -0.0085612 1e-05
0.00840282 -0.00857153 1e-05
0.00841054 -0.00858189 1e-05
0.00852154 -0.00873055 1e-05
0.00863335 -0.0088786 1e-05
0.00874601 -0.009026 1e-05
0.00885954 -0.00917274 1e-05
0.00896551 -0.00930785 1e-05
0.0090301 -0.00938914 1e-05
0.00909496 -0.00947023 1e-05
0.00916008 -0.0095511 1e-05
0.00922551 -0.00963173 1e-05
0.0092931 -0.00971438 1e-05
0.0093472 -0.00978001 1e-05
0.0094015 -0.00984548 1e-05
0.00945599 -0.00991078 1e-05
0.00951068 -0.00997592 1e-05
0.0095636 -0.0100386 1e-05
[...]
POINT_DATA 12278
 FIELD attributes 2
p 1 12278 float
177014 177095 177168 177231 177285 177330
108947 108965 108981 108996 109008 109018
87753.7 87763.2 87772.6 87781.7 87790.7 87799.1
79935.9 79942.2 79948.5 79954.6 79960.7 79966.6
77145 77154.3 77163.5 77172.7 77181.9 77191.1
77562.4 77576 77589.6 77603.1 77616.7 77630.2
81095.6 81108 81120.3 81132.4 81144.3 81156
90922.1 90941.8 90960.8 90979.1 90996.7 91013.6
117354 117387 117417 117445 117471 117495
215473 215283 215091 214897 214701 214503
177014 173408 169081 164503 162837 158905 155522 152872 144706 134665 129222 123794 119855 119245 118393 112347 106448 102327 101431 100564 99582 98599.8 97173.1 95704.8 93989.2 93622.7 93255.7 92888.2 92407.2 91909.5 89989.9 88186 86672 85884.7 85107.9 84422.1 83757.4 83107.6 82455.8 81621.9 81586.9 81558 81530 81501.9 81473.1 80940.4 80408.1 79876.3 79344.9 78919.9 78493.6 78084.5 77686.8 77311.2 76945.2 76595.3 76245 75921.3 75619.8 75318.7 75029.2 74739.6 74461.1 74198.2 73935.6 73682 73428.3 73178.2 72942 72706 72477 72248.1 72017.6 71798.1 71578.9 71365.3 71151.8 70933.1 70722.3 70511.6 70304.5 70097.5 69884.6 69672.1 69460 69248.1 69036.6 68821.4 68593.4 68365.8 68132.9 67897.2 67653.1 67400.5 67134.6 66854.3 66540.6 66228.4 65917.8 65604.8 65604.5 65604.3 65604 65603.8 65603.5 65212.2 64826.7 64446.8 64048.7 63568.6 63053.1 62543.4 61842.3 61069.2 60256.1 60007.8 59769.9 59542.8 59316.4 59131.1 58574.1 58015 57453.8 56980.5 56512.2 55907.6 55304.9 54765.1 54224 53839.6 53781.4 53723.2 53667.9 53620.2 53572 53018.8 52458.5 51940.5 51468.1 50922.8 50921.7 50920.6 50919.7 50918.9 50918.1 50491 50056.4 49653.9 49318.4 49049.4 48950.2 48850.5 48779.6 48709.9 48637.3 48448.9 48258.1 48065.5 47921.1 47789 47616.3 47447.6 47307.9 47166.2 47006.9 47000.5 46994.1 46987.7 46981.9 46976.4 46871.1 46758.8 46644 46530.7 46423.8 46388.2 46351.5 46311.9 46271.5 46227.7 46207.6 46187.3 46166.9 46145.8 46124.7 46099.3 46072.6 46035.5 45993.2 45951.7 45954.1 45956.2 45955.5 45954.7 45953.7 45942.4 45930.7 45918.6 45903.6 45888.4 45898.2 45907.3 45911.8 45915.8 45919.5 45918.6 45917.8 45916.9 45915.9 45914.8 45928.4 45942 45954.6 45965.4 45975.7 45986 45996.2 46006 46015.7 46025.5 46037 46048.4 46059.7 46070.7 46081.7 46100.1 46118.5 46137 46155.5 46174.1 46182.7 46191.2 46199.9 46209 46218.1 46240.8 46263.6 46286.9 46310.8 46334.6 46342 46349.4 46357.2 46365.4 46373.7 46396.9 46420.2 46444.4 46469.6 46494.4 46503.3 46512.2 46521.9 46532.1 46542.4 46562.1 46581.9 46602.2 46624.1 46645.4 46659.2 46673.2 46688.9 46705.2 46721.9 46733.4 46745 46756.7 46769.4 46781.8 46803.7 46825.9 46851.3 46877.5 46903.4 46904.6 46905.7 46907.1 46908.4 46909.8 46931 46952.4 46974.2 46998.1 47020.4 47030 47039.6 47050.6 47061.6 47073.1 47082.8 47092.5 47102.3 47112.7 47122.8 47140 47157.4 47176.3 47196.2 47215.5 47218.1 47220.8 47223.7 47226.7 47229.6 47244 47258.4 47273 47288.6 47303.5 47317.2 47331.4 47346.9 47362.5 47379.4 47379.5 47379.5 47379.6 47379.7 47379.8 47394.4 47409.1 47423.9 47439.8 47455.1 47467.1 47479.7 47493.3 47507 47520.1 47520.7 47521.3 47522 47522.7 47523.4 47535.2 47547 47558.9 47571.6 47584 47594.3 47604.7 47616.3 47628.5 47640.5 47644.5 47648.9 47653.6 47658.3 47663.2 47669 47674.9 47680.8 47686.9 47693.3 47702.1 47711.2 47720.9 47731.8 47742.3 47749.9 47758 47766.9 47775.8 47785 47787.1 47789.6 47792.1 47794.6 47797.3 47802.7 47808 47813.4 47818.9 47825 47831.2 47837.8 47844.7 47852.7 47860.6 47865.6 47870.7 47876.9 47883.6 47890.3 47893.9 47898.6 47903.2 47907.9 47913.2 47913.4 47913.7 47913.9 47914.2 47914.5 47918.6 47922.7 47926.9 47931 47936.1 47938.4 47940.9 47943.9 47947.8 47951.7 47952.8 47953.9 47955.8 47958.6 47961.3 47961.2 47961.7 47962.6 47963.5 47964.9 47964.1 47963.8 47963.5 47963.2 47962.9 47962.8 47962.8 47962.8 47962.8 47962.8 47961.5 47960.1 47958.8 47957.4 47956.6 47953.4 47950.9 47948.3 47946 47944.2 47939.9 47935.6 47931.8 47928.8 47925.7 47920.2 47914.7 47909.8 47905.5 47901.2 47894.6 47888 47881.9 47876.2 47870.8 47863 47855.6 47848.4 47841.1 47834.5 47825.8 47817.4 47809 47800.6 47792.5 47783.9 47775.5 47767.1 47758.6 47748.7 47748 47747.3 47746.5 47745.8 47745.1 47734.6 47724.2 47713.7 47703.3 47692.9 47681.2 47669.7 47658.2 47646.7 47635.4 47622.4 47609.9 47597.4 47585 47572.7 47558.7 47545.1 47531.7 47518.3 47505 47490.1 47475.4 47461 47446.7 47432.4 47416.7 47401 47385.7 47370.5 47355.3 47338.8 47322.2 47306 47289.9 47273.8 47256.5 47239.1 47222 47205 47188.1 47170 47151.9 47133.9 47116.1 47098.4 47079.6 47060.8 47041.9 47023.4 47004.9 46985.5 46966 46946.4 46927.1 46907.9 46887.7 46867.6 46847.4 46827.3 46807.4 46786.7 46765.9 46745 46724.3 46703.7 46682.4 46661.1 46639.6 46618.2 46597.1 46575.2 46553.3 46531.3 46509.3 46487.5 46465.2 46442.7 46420.2 46397.6 46375.3 46352.5 46329.5 46306.5 46283.4 46260.6 46237.3 46213.8 46190.3 46166.9 46143.5 46119.8 46095.8 46071.9 46048 46024.2 46000 45975.7 45951.4 45927.1 45902.9 45878.3 45853.6 45828.9 45804.2 45779.5 45754.6 45729.5 45704.4 45679.4 45654.4 45629.1 45603.7 45578.3 45552.9 45527.5 45501.9 45476.1 45450.4 45424.7 45399 45373.1 45347 45321 45295 45269 45242.8 45216.5 45190.2 45163.9 45137.6 45111.1 45084.5 45057.9 45031.4 45004.8 44978 44951.2 44924.4 44897.6 44870.8 44843.8 44816.7 44789.6 44762.6 44735.5 44708.3 44681 44653.7 44626.4 44599.1 44571.7 44544.2 44516.6 44489.1 44461.6 44434 44406.2 44378.5 44350.8 44323.1 44295.2 44267.3 44239.4 44211.5 44183.6 44155.5 44127.4 44099.3 44071.2 44043 44014.8 43986.5 43958.2 43929.9 43901.6 43873.1 43844.7 43816.2 43787.7 43759.2 43730.6 43701.9 43673.3 43644.6 43616 43587.2 43558.3 43529.5 43500.7 43471.8 43442.8 43413.8 43384.8 43355.8 43326.8 43297.7 43268.5 43239.3 43210.1 43180.9 43151.6 43122.3 43092.9 43063.6 43034.2 43004.7 42975.2 42945.7 42916.1 42886.6 42856.9 42827.3 42797.6 42767.9 42738.2 42708.3 42678.5 42648.6 42618.7 42588.9 42558.9 42528.8 42498.8 42468.7 42438.7 42408.5 42378.3 42348.1 42317.9 42287.6 42257.3 42226.9 42196.5 42166.1 42135.7 42105.2 42074.6 42044 42013.5 41982.9 41952.2 41921.4 41890.7 41859.9 41829.1 41798.3 41767.3 41736.4 41705.4 41674.5 41643.4 41612.3 41581.2 41550 41518.9 41487.6 41456.3 41425 41393.7 41362.3 41330.8 41299.3 41267.8 41236.3 41204.8 41173.1 41141.4 41109.7 41078 41046.2 41014.3 40982.4 40950.5 40918.6 40886.7 40854.6 40822.5 40790.3 40758.2 40726.1 40693.8 40661.5 40629.1 40596.8 40564.4 40531.9 40499.4 40466.8 40434.3 40401.7 40369 40336.2 40303.5 40270.7 40237.9 40205 40172 40139 40106 40073 40039.8 40006.6 39973.4 39940.2 39906.9 39873.5 39840.1 39806.7 39773.2 39739.7 39706.1 39672.4 39638.8 39605.1 39571.3 39537.5 39503.6 39469.7 39435.8 39401.8 39367.7 39333.5 39299.4 39265.2 39231 39196.7 39162.3 39127.9 39093.5 39059 39024.4 38989.8 38955.1 38920.5 38885.7 38850.9 38816 38781.1 38746.2 38711.2 38676.1 38641 38605.8 38570.7 38535.4 38500.1 38464.7 38429.3 38393.8 38358.3 38322.7 38287.1 38251.4 38215.7 38179.9 38144.1 38108.1 38072.2 38036.2 38000.2 37964 37927.8 37891.6 37855.4 37819.1 37782.7 37746.2 37709.7 37673.2 37636.6 37599.9 37563.2 37526.4 37489.6 37452.8 37415.8 37378.8 37341.7 37304.7 37267.5 37230.3 37193 37155.6 37118.3 37080.9 37043.3 37005.7 36968.1 36930.5 36892.8 36855 36817.1 36779.2 36741.3 36703.3 36665.2 36627 36588.8 36550.6 36512.3 36473.9 36435.4 36396.9 36358.4 36319.8 36281.1 36242.4 36203.6 36164.8 36125.9 36086.9 36047.9 36008.8 35969.6 35930.5 35891.2 35851.8 35812.4 35773 35733.5 35693.9 35654.3 35614.6 35574.8 35535.1 35495.1 35455.2 35415.2 35375.1 35335.1 35294.8 35254.6 35214.2 35173.9 35133.5 35092.9 35052.4 35011.7 34971.1 34930.4 34889.5 34848.6 34807.7 34766.7 34725.7 34684.5 34643.3 34602 34560.7 34519.4 34477.9 34436.3 34394.8 34353.1 34311.5 34269.6 34227.8 34185.9 34143.9 34101.9 34059.8 34017.6 33975.4 33933.1 33890.8 33848.3 33805.8 33763.3 33720.6 33678 33635.2 33592.4 33549.5 33506.5 33463.6 33420.4 33377.3 33334 33290.7 33247.4 33204 33160.5 33116.9 33073.3 33029.6 32985.8 32942 32898.1 32854.1 32810.1 32766 32721.8 32677.6 32633.3 32588.9 32544.4 32499.9 32455.3 32410.7 32366 32321.2 32276.3 32231.4 32186.4 32141.4 32096.1 32050.9 32005.7 31960.3 31914.9 31869.4 31823.8 31778.2 31732.5 31686.8 31640.9 31594.9 31548.9 31502.9 31456.8 31410.5 31364.3 31317.9 31271.5 31225.1 31178.4 31131.8 31085.1 31038.3 30991.5 30944.5 30897.5 30850.5 30803.3 30756.2 30708.8 30661.4 30614 30566.5 30518.9 30471.2 30423.5 30375.7 30327.8 30279.9 30231.8 30183.7 30135.5 30087.2 30039 29990.5 29942 29893.4 29844.8 29796.2 29747.3 29698.4 29649.5 29600.5 29551.5 29502.2 29453 29403.7 29354.3 29304.9 29255.2 29205.6 29155.9 29106.1 29056.3 29006.3 28956.3 28906.2 28856 28805.8 28755.4 28705 28654.5 28603.9 28553.3 28502.5 28451.7 28400.8 28349.8 28298.8 28247.6 28196.4 28145.1 28093.7 28042.4 27990.7 27939.1 27887.4 27835.6 27783.8 27731.8 27679.7 27627.6 27575.4 27523.2 27470.8 27418.3 27365.8 27313.2 27260.5 27207.7 27154.8 27101.8 27048.8 26995.8 26942.5 26889.1 26835.8 26782.3 26728.9 26675.1 26621.4 26567.6 26513.7 26459.8 26405.7 26351.5 26297.3 26243 26188.7 26134.2 26079.6 26025 25970.3 25915.6 25860.6 25805.6 25750.6 25695.6 25640.5 25585.1 25529.8 25474.5 25419.1 25363.7 25308 25252.4 25196.8 25141.1 25085.5 25029.6 24973.8 24918.1 24862.3 24806.6 24750.7 24694.9 24639.2 24583.6 24527.9 24472.2 24416.9 24361.8 24306.7 24252 24197.3 24142.4 24087.4 24032.4 23977 23922.3 23873.6 23825 23776.3 23732.6 23683.4 23618.1 23552.6 23487.1 23412.6 23361.4 23331 23301 23271.2 23257 23252.8 23248.7 23244.5 23240.3 23238.8 23236.2 23230.9 23225.7 23220.4 23214.7 23187.7 23160.5 23133.1 23105.4 23061.8 22985.9 22916.9 22848 22779.1 22722.8 22671.7 22615.4 22559 22502.6 22440 22372.2 22304.2 22236.1 22167.9 22099.5 22028.2 21954.9 21881.7 21808.5 21733.1 21654.9 21575.1 21495.3 21415.5 21334.1 21249.8 21163.7 21077.5 20991.4 20903.4 20812.4 20719.5 20626.5 20533.5 20438.7 20340.6 20240.4 20140.1 20039.7 19937.4 19831.5 19723.3 19615 19506.6 19396.1 19281.8 19164.7 19047.5 18930.2 18810.4 18686.4 18559.6 18432.7 18305.7 18176.3 18042.2 17904.3 17766.1 17627.8 17485.9 17338.9 17189.2 17039.4 16889.4 16737.2 16579.4 16414.8 16249.9 16084.7 15913.2 15735.4 15557.3 15379.2 15201 15022.9 14838.3 14638.8 14438.4 14237.3 14022.1 13798.9 13585.8 13373.3 13161.4 12960 12751.1 12503.6 12253.9 12002 11712.7 11412.5 11157.2 10904.7 10654.9 10450.2 10237.6 9921.61 9598.04 9265.87 8833.19 8384.2 8071.44 7773.83 7494.24 7349.14 7198.1 6801.63 6357.16 5838.92 5089.56 4311.27 3779.12 3398.21 3250.86 3316.6 3382.92 3361.98 2777.11 1388.14 0