4.545454545e-05 	0.0005373594931 	0.0001028051408 	1.113000199e-11
6.060606061e-05 	0.001389332538 	0.0002658002666 	2.877591061e-11
7.575757576e-05 	0.002241305604 	0.0004287953999 	4.642182335e-11
9.090909091e-05 	0.003113399924 	0.0005798816559 	5.523414521e-11
0.0001060606061 	0.004008032293 	0.0007176345278 	5.415817221e-11
0.0001212121212 	0.004902664664 	0.0008553874028 	5.308219766e-11
0.0001363636364 	0.005811545029 	0.0009847940488 	5.209711765e-11
0.0001515151515 	0.006751741354 	0.001095865282 	5.131240934e-11
0.0001666666667 	0.007691937654 	0.001206936512 	5.05277002e-11
0.0001818181818 	0.008640584649 	0.001314487911 	4.986697264e-11
0.000196969697 	0.009635748859 	0.001402677891 	4.988623466e-11
0.0002121212121 	0.01063091306 	0.001490867871 	4.99054962e-11
0.0002272727273 	0.01162607725 	0.001579057849 	4.992475738e-11
0.0002424242424 	0.01269226906 	0.001648794034 	4.937329582e-11
0.0002575757576 	0.01375883386 	0.001718434723 	4.881870025e-11
0.0002727272727 	0.01482539863 	0.001788075409 	4.82641047e-11
0.0002878787879 	0.01596907929 	0.001845325318 	4.758168364e-11
0.000303030303 	0.01712790894 	0.00190014226 	4.687367856e-11
0.0003181818182 	0.01828673856 	0.001954959198 	4.61656745e-11
0.0003333333333 	0.0195227808 	0.002001814757 	4.446428826e-11
0.0003484848485 	0.02079568852 	0.002044870078 	4.22889907e-11
0.0003636363636 	0.02206859618 	0.002087925391 	4.01136934e-11
0.0003787878788 	0.02341091214 	0.0021260304 	3.849812629e-11
0.0003939393939 	0.02481784694 	0.00215952756 	3.74043716e-11
0.0004090909091 	0.02622478167 	0.00219302471 	3.631061565e-11
0.0004242424242 	0.02768577967 	0.002223561621 	3.662341677e-11
0.0004393939394 	0.02924335332 	0.002248811405 	3.944882101e-11
0.0004545454545 	0.0308009269 	0.002274061184 	4.227422449e-11
0.0004696969697 	0.03239124514 	0.002297779883 	4.469559441e-11
0.0004848484848 	0.03411260954 	0.002315372246 	4.54988034e-11
0.0005 	0.03583397391 	0.002332964604 	4.630201218e-11
0.0005151515152 	0.03756247093 	0.002350248826 	4.70070142e-11
0.0005303030303 	0.03945805193 	0.002360319064 	4.541892156e-11
0.0005454545455 	0.04135363287 	0.002370389301 	4.383082864e-11
0.0005606060606 	0.04324921374 	0.002380459534 	4.224273541e-11
0.0005757575758 	0.0453060866 	0.002383832889 	4.199816738e-11
0.0005909090909 	0.0473845455 	0.00238631012 	4.193300046e-11
0.0006060606061 	0.04946300433 	0.002388787344 	4.186783353e-11
0.0006212121212 	0.05167922915 	0.002385701091 	4.106111083e-11
0.0006363636364 	0.05394823884 	0.002380483309 	3.997020006e-11
0.0006515151515 	0.05621724839 	0.002375265519 	3.887928941e-11
0.0006666666667 	0.05859777006 	0.002365688901 	3.774147604e-11
0.0006818181818 	0.06106449226 	0.002352742927 	3.656789869e-11
0.000696969697 	0.06353121433 	0.002339796943 	3.539432025e-11
0.0007121212121 	0.06608081007 	0.002323754962 	3.46677958e-11
0.0007272727273 	0.06875214122 	0.002303165216 	3.459794966e-11
0.0007424242424 	0.07142347222 	0.002282575468 	3.452810307e-11
0.0007575757576 	0.07414680976 	0.002260160092 	3.428299837e-11
0.0007727272727 	0.07702950028 	0.002232150739 	3.350052665e-11
0.0007878787879 	0.0799121907 	0.002204141381 	3.271805452e-11
0.000803030303 	0.0828138673 	0.002175518584 	3.197028868e-11
0.0008181818182 	0.08591458808 	0.002140464168 	3.158581318e-11
0.0008333333333 	0.08901530878 	0.00210540975 	3.120133761e-11
0.0008484848485 	0.0921160294 	0.002070355331 	3.081686196e-11
0.0008636363636 	0.0954252701 	0.002029255098 	3.229886651e-11
0.0008787878788 	0.09875066389 	0.001987686432 	3.392506964e-11
0.0008939393939 	0.1020760575 	0.00194611776 	3.555127348e-11
0.0009090909091 	0.1055793796 	0.00190006988 	3.502316143e-11
0.0009242424242 	0.1091361113 	0.001852677309 	3.384848805e-11
0.0009393939394 	0.1126928428 	0.001805284734 	3.267381523e-11
0.0009545454545 	0.1163948395 	0.001754858079 	2.968891006e-11
0.0009696969697 	0.1201896521 	0.001702492612 	2.55485964e-11
0.0009848484848 	0.1239844644 	0.00165012714 	2.14082802e-11
0.001 	0.1278897999 	0.001595974133 	1.899882405e-11
0.001015151515 	0.1319295802 	0.001539646363 	1.869547538e-11
0.00103030303 	0.1359693603 	0.001483318594 	1.839212499e-11
0.001045454545 	0.1400828002 	0.001426174138 	1.853510004e-11
0.001060606061 	0.1443746699 	0.001367050832 	1.975777555e-11
0.001075757576 	0.1486665394 	0.001307927523 	2.098044975e-11
0.001090909091 	0.1529929946 	0.001248607321 	2.19007767e-11
0.001106060606 	0.1575444769 	0.001188004807 	2.085058582e-11
0.001121212121 	0.1620959591 	0.001127402293 	1.980039507e-11
0.001136363636 	0.1666474411 	0.001066799779 	1.875020443e-11
0.001151515152 	0.1714599981 	0.001006171012 	1.716528128e-11
0.001166666667 	0.1762794569 	0.0009455413777 	1.556575049e-11
0.001181818182 	0.1810989155 	0.0008849117432 	1.396622119e-11
0.001196969697 	0.1861455318 	0.0008255354409 	9.583164955e-12
0.001212121212 	0.1912436201 	0.0007664429345 	4.569528148e-12
0.001227272727 	0.1963417082 	0.000707350427 	-4.441071464e-13
0.001242424242 	0.2016346114 	0.0006503716602 	-3.560191242e-12
0.001257575758 	0.2070295429 	0.0005944996697 	-5.681974619e-12
0.001272727273 	0.2124244739 	0.0005386276815 	-7.803757784e-12
0.001287878788 	0.2179896956 	0.0004853152501 	-7.034459553e-12
0.001303030303 	0.2237270503 	0.0004345897897 	-3.342858692e-12
0.001318181818 	0.2294644048 	0.0003838643289 	3.48742123e-13
0.001333333333 	0.2353676809 	0.0003355549218 	2.995789912e-12
0.001348484848 	0.2415954547 	0.0002919701465 	3.601325729e-12
0.001363636364 	0.2478232283 	0.0002483853716 	4.206860045e-12
0.001378787879 	0.2542361834 	0.0002060940903 	3.965136958e-12
0.001393939394 	0.2614965304 	0.000169720214 	-1.5381056e-13
0.001409090909 	0.2687568774 	0.0001333463378 	-4.272758391e-12
0.001424242424 	0.2760829229 	9.708347531e-05 	-8.254280218e-12
0.001439393939 	0.2865707564 	6.6151324e-05 	-5.624368618e-12
0.001454545455 	0.2970585892 	3.521917332e-05 	-2.994457941e-12
0.00146969697 	0.3075464214 	4.287023437e-06 	-3.645484376e-13
