# vtk DataFile Version 2.0
track0
ASCII
DATASET POLYDATA
POINTS 12288 float
-0.0205 0.001 1e-05
-0.02052 0.000999216 1e-05
-0.02054 0.000998592 1e-05
-0.02056 0.000998126 1e-05
-0.02058 0.000997818 1e-05
-0.0206 0.000997665 1e-05
-0.0205 0.00367778 1e-05
-0.02052 0.00367703 1e-05
-0.02054 0.00367643 1e-05
-0.02056 0.00367598 1e-05
-0.02058 0.00367569 1e-05
-0.0206 0.00367554 1e-05
-0.0205 0.00635556 1e-05
-0.02052 0.00635527 1e-05
-0.02054 0.00635505 1e-05
-0.02056 0.00635488 1e-05
-0.02058 0.00635476 1e-05
-0.0206 0.0063547 1e-05
-0.0205 0.00903333 1e-05
-0.02052 0.00903311 1e-05
-0.02054 0.00903293 1e-05
-0.02056 0.0090328 1e-05
-0.02058 0.00903271 1e-05
-0.0206 0.00903266 1e-05
-0.0205 0.0117111 1e-05
-0.02052 0.0117111 1e-05
-0.02054 0.011711 1e-05
-0.02056 0.011711 1e-05
-0.02058 0.011711 1e-05
-0.0206 0.011711 1e-05
-0.0205 0.0143889 1e-05
-0.02052 0.014389 1e-05
-0.02054 0.014389 1e-05
-0.02056 0.0143891 1e-05
-0.02058 0.0143891 1e-05
-0.0206 0.0143891 1e-05
-0.0205 0.0170667 1e-05
-0.02052 0.017067 1e-05
-0.02054 0.0170672 1e-05
-0.02056 0.0170674 1e-05
-0.02058 0.0170675 1e-05
-0.0206 0.0170676 1e-05
-0.0205 0.0197444 1e-05
-0.02052 0.019745 1e-05
-0.02054 0.0197454 1e-05
-0.02056 0.0197457 1e-05
-0.02058 0.0197459 1e-05
-0.0206 0.019746 1e-05
-0.0205 0.0224222 1e-05
-0.02052 0.022423 1e-05
-0.02054 0.0224236 1e-05
-0.02056 0.0224241 1e-05
-0.02058 0.0224244 1e-05
-0.0206 0.0224245 1e-05
-0.0205 0.0251 1e-05
-0.02052 0.0251003 1e-05
-0.02054 0.0251005 1e-05
-0.02056 0.0251007 1e-05
-0.02058 0.0251008 1e-05
-0.0206 0.0251008 1e-05
-0.0205 0.001 1e-05
-0.0203632 0.00100536 1e-05
-0.0202266 0.00101332 1e-05
-0.0200901 0.00102296 1e-05
-0.0200427 0.00102682 1e-05
-0.0198376 0.00104418 1e-05
-0.0196338 0.00107322 1e-05
-0.0194327 0.00111734 1e-05
-0.0192367 0.00118023 1e-05
-0.0190172 0.00124951 1e-05
-0.0189002 0.00128348 1e-05
-0.0187827 0.00131598 1e-05
-0.0186649 0.001347 1e-05
-0.0185469 0.00137701 1e-05
-0.0183807 0.00141936 1e-05
-0.0182041 0.00146459 1e-05
-0.0180267 0.00150695 1e-05
-0.0178487 0.00154644 1e-05
-0.0176703 0.00158395 1e-05
-0.0174976 0.00161999 1e-05
-0.0172848 0.001664 1e-05
-0.017072 0.00170747 1e-05
-0.0168591 0.00175035 1e-05
-0.0166459 0.00179227 1e-05
-0.0163964 0.00184007 1e-05
-0.0163249 0.00185334 1e-05
-0.0162533 0.00186649 1e-05
-0.0161817 0.00187952 1e-05
-0.0161101 0.00189243 1e-05
-0.0160387 0.00190512 1e-05
-0.0157586 0.00195417 1e-05
-0.0154779 0.00200015 1e-05
-0.0151968 0.00204327 1e-05
-0.0149154 0.00208407 1e-05
-0.0146381 0.00212282 1e-05
-0.0143879 0.00215645 1e-05
-0.0141375 0.00218861 1e-05
-0.0138869 0.00221936 1e-05
-0.0136361 0.00224871 1e-05
-0.0132934 0.00228683 1e-05
-0.0132854 0.00228766 1e-05
-0.0132774 0.00228849 1e-05
-0.0132693 0.00228932 1e-05
-0.0132613 0.00229014 1e-05
-0.0132531 0.00229098 1e-05
-0.013003 0.0023166 1e-05
-0.0127528 0.00234095 1e-05
-0.0125024 0.00236401 1e-05
-0.0122519 0.00238574 1e-05
-0.0120025 0.00240604 1e-05
-0.0117547 0.00242506 1e-05
-0.0115067 0.00244278 1e-05
-0.0112587 0.00245936 1e-05
-0.0110105 0.00247496 1e-05
-0.0107632 0.00248958 1e-05
-0.0105252 0.00250276 1e-05
-0.0102872 0.00251496 1e-05
-0.0100491 0.00252618 1e-05
-0.00981104 0.00253659 1e-05
-0.00957337 0.00254626 1e-05
-0.00934491 0.00255488 1e-05
-0.00911643 0.00256275 1e-05
-0.00888792 0.00256988 1e-05
-0.00865939 0.00257626 1e-05
-0.00843108 0.00258204 1e-05
-0.00821175 0.00258701 1e-05
-0.00799241 0.00259138 1e-05
-0.00777305 0.00259515 1e-05
-0.00755369 0.00259824 1e-05
-0.00733443 0.00260075 1e-05
-0.00712387 0.00260263 1e-05
-0.00691329 0.00260397 1e-05
-0.00670272 0.00260476 1e-05
-0.00649215 0.00260489 1e-05
-0.0062816 0.00260441 1e-05
-0.00607944 0.00260339 1e-05
-0.00587729 0.00260184 1e-05
-0.00567515 0.00259971 1e-05
-0.00547301 0.00259688 1e-05
-0.00527083 0.00259335 1e-05
-0.00507675 0.00258929 1e-05
-0.00488269 0.00258463 1e-05
-0.00468864 0.00257936 1e-05
-0.00449462 0.00257323 1e-05
-0.00430044 0.0025662 1e-05
-0.00411412 0.00255862 1e-05
-0.00392783 0.00255025 1e-05
-0.00374158 0.00254112 1e-05
-0.00355538 0.00253096 1e-05
-0.00336883 0.00251959 1e-05
-0.00318995 0.00250754 1e-05
-0.00301114 0.00249442 1e-05
-0.00283242 0.00248024 1e-05
-0.0026538 0.00246481 1e-05
-0.00247443 0.00244767 1e-05
-0.0023027 0.00242967 1e-05
-0.00213114 0.00241015 1e-05
-0.00195978 0.00238888 1e-05
-0.00178866 0.00236574 1e-05
-0.00161577 0.00234045 1e-05
-0.00155352 0.00233056 1e-05
-0.00149132 0.00232036 1e-05
-0.00142918 0.00230977 1e-05
-0.0013671 0.00229879 1e-05
-0.00132446 0.00229098 1e-05
-0.00121785 0.00227097 1e-05
-0.00111143 0.00225 1e-05
-0.0010052 0.00222808 1e-05
-0.000899167 0.00220522 1e-05
-0.000791418 0.00218088 1e-05
-0.000633135 0.00214317 1e-05
-0.000475566 0.00210258 1e-05
-0.000318751 0.00205916 1e-05
-0.000162861 0.00201254 1e-05
0 0.00195956 1e-05
6.42846e-05 0.00193685 1e-05
0.000128259 0.00191328 1e-05
0.000191924 0.00188888 1e-05
0.000255277 0.00186369 1e-05
0.000299179 0.00184559 1e-05
0.000345021 0.00182623 1e-05
0.000390664 0.0018064 1e-05
0.000436105 0.00178611 1e-05
0.000481339 0.00176536 1e-05
0.000528387 0.00174324 1e-05
0.000634886 0.00169188 1e-05
0.000740209 0.00163814 1e-05
0.000844291 0.00158204 1e-05
0.000947133 0.0015237 1e-05
0.00106088 0.00145589 1e-05
0.00106727 0.00145187 1e-05
0.00107366 0.00144784 1e-05
0.00108004 0.0014438 1e-05
0.00108641 0.00143975 1e-05
0.00109265 0.00143578 1e-05
0.00119362 0.00137131 1e-05
0.00129311 0.00130457 1e-05
0.00139101 0.00123553 1e-05
0.00148734 0.00116432 1e-05
0.00159752 0.00107937 1e-05
0.00160585 0.00107262 1e-05
0.00161418 0.00106585 1e-05
0.00162249 0.00105906 1e-05
0.00163079 0.00105225 1e-05
0.00163888 0.00104559 1e-05
0.00172826 0.000971821 1e-05
0.00181609 0.000896207 1e-05
0.00190227 0.000818726 1e-05
0.00198694 0.000739592 1e-05
0.00205217 0.000676477 1e-05
0.0020694 0.000659333 1e-05
0.00208656 0.000642112 1e-05
0.00210363 0.000624813 1e-05
0.00212065 0.000607456 1e-05
0.00213833 0.000589301 1e-05
0.00218881 0.000537089 1e-05
0.00223869 0.000484304 1e-05
0.00228795 0.00043094 1e-05
0.00233657 0.00037699 1e-05
0.00237971 0.000328198 1e-05
0.00243676 0.000262559 1e-05
0.00249295 0.000196172 1e-05
0.00254826 0.000129055 1e-05
0.00260281 6.1326e-05 1e-05
0.00265106 0 1e-05
0.00265752 -8.38545e-06 1e-05
0.00266396 -1.67795e-05 1e-05
0.00267039 -2.51818e-05 1e-05
0.00267682 -3.35912e-05 1e-05
0.00268334 -4.21451e-05 1e-05
0.00273296 -0.000107406 1e-05
0.00278197 -0.000173129 1e-05
0.00283035 -0.00023932 1e-05
0.00287807 -0.000305985 1e-05
0.0029219 -0.000368422 1e-05
0.00297859 -0.000450629 1e-05
0.00303443 -0.00053341 1e-05
0.00308942 -0.00061676 1e-05
0.00314365 -0.000700607 1e-05
0.00319355 -0.000779392 1e-05
0.00320136 -0.000791958 1e-05
0.00320915 -0.000804534 1e-05
0.00321693 -0.00081712 1e-05
0.00322469 -0.000829714 1e-05
0.00323259 -0.000842555 1e-05
0.00328106 -0.000921556 1e-05
0.00332892 -0.00100092 1e-05
0.00337617 -0.00108066 1e-05
0.00342278 -0.00116077 1e-05
0.00346666 -0.00123749 1e-05
0.00352414 -0.00133959 1e-05
0.00358076 -0.00144216 1e-05
0.0036365 -0.00154521 1e-05
0.00369149 -0.00164866 1e-05
0.00374326 -0.00174785 1e-05
0.00375183 -0.00176454 1e-05
0.00376038 -0.00178124 1e-05
0.00376892 -0.00179795 1e-05
0.00377744 -0.00181467 1e-05
0.00378611 -0.00183171 1e-05
0.00383531 -0.00192862 1e-05
0.00388394 -0.00202582 1e-05
0.00393198 -0.00212331 1e-05
0.0039794 -0.00222111 1e-05
0.00402487 -0.00231617 1e-05
0.00408462 -0.00244273 1e-05
0.00414355 -0.00256968 1e-05
0.00420165 -0.002697 1e-05
0.00425911 -0.00282462 1e-05
0.00431426 -0.00294885 1e-05
0.0043202 -0.00296238 1e-05
0.00432612 -0.00297592 1e-05
0.00433204 -0.00298946 1e-05
0.00433796 -0.003003 1e-05
0.00434393 -0.00301668 1e-05
0.00439945 -0.00314396 1e-05
0.00445443 -0.00327147 1e-05
0.00450885 -0.00339922 1e-05
0.00456269 -0.00352722 1e-05
0.00461511 -0.00365298 1e-05
0.00467331 -0.00379376 1e-05
0.004731 -0.00393475 1e-05
0.00478821 -0.00407593 1e-05
0.00484515 -0.00421723 1e-05
0.00490609 -0.00436936 1e-05
0.00491144 -0.00438279 1e-05
0.00491678 -0.00439623 1e-05
0.00492211 -0.00440966 1e-05
0.00492745 -0.0044231 1e-05
0.00493277 -0.00443652 1e-05
0.00500187 -0.00461089 1e-05
0.00507058 -0.00478541 1e-05
0.00513897 -0.00496006 1e-05
0.00520704 -0.00513484 1e-05
0.00527465 -0.0053083 1e-05
0.00531424 -0.00540983 1e-05
0.00535381 -0.00551136 1e-05
0.00539336 -0.00561291 1e-05
0.00543299 -0.00571442 1e-05
0.00547262 -0.00581567 1e-05
0.00550893 -0.00590817 1e-05
0.00554523 -0.00600068 1e-05
0.00558153 -0.00609319 1e-05
0.00561783 -0.0061857 1e-05
0.00565424 -0.0062782 1e-05
0.0057321 -0.00647541 1e-05
0.00581028 -0.00667249 1e-05
0.00588879 -0.00686945 1e-05
0.00596798 -0.00706613 1e-05
0.00604356 -0.00725176 1e-05
0.00605223 -0.00727283 1e-05
0.00606091 -0.0072939 1e-05
0.00606959 -0.00731496 1e-05
0.00607828 -0.00733603 1e-05
0.00608699 -0.00735711 1e-05
0.00618625 -0.00759706 1e-05
0.00628664 -0.00783654 1e-05
0.00638821 -0.00807552 1e-05
0.00649127 -0.00831386 1e-05
0.0065987 -0.00855707 1e-05
0.00660275 -0.00856603 1e-05
0.0066068 -0.00857498 1e-05
0.00661085 -0.00858394 1e-05
0.0066149 -0.00859289 1e-05
0.00661893 -0.00860179 1e-05
0.00671732 -0.00881873 1e-05
0.00681727 -0.00903495 1e-05
0.00691884 -0.00925041 1e-05
0.00702219 -0.00946503 1e-05
0.00713155 -0.00968675 1e-05
0.00714499 -0.00971332 1e-05
0.00715847 -0.00973988 1e-05
0.00717198 -0.00976642 1e-05
0.00718552 -0.00979295 1e-05
0.00719878 -0.00981885 1e-05
0.0073012 -0.0100183 1e-05
0.00740545 -0.0102168 1e-05
0.00751159 -0.0104142 1e-05
0.00761974 -0.0106106 1e-05
0.007736 -0.0108163 1e-05
0.00774542 -0.0108325 1e-05
0.00775487 -0.0108487 1e-05
0.00776432 -0.0108649 1e-05
0.00777379 -0.0108811 1e-05
0.00778313 -0.0108971 1e-05
0.00790091 -0.0110977 1e-05
0.00802105 -0.0112968 1e-05
0.00814361 -0.0114945 1e-05
0.00826868 -0.0116906 1e-05
0.00837203 -0.011848 1e-05
0.0083852 -0.0118675 1e-05
0.0083984 -0.0118871 1e-05
0.00841162 -0.0119066 1e-05
0.00842487 -0.0119261 1e-05
0.00843828 -0.0119458 1e-05
[...]
POINT_DATA 12288
 FIELD attributes 1
U 3 12288 float
9.72338 	0.381303 	0 9.77871 	0.305042 	0 9.83405 	0.22876 	0 9.8894 	0.152462 	0 9.94476 	0.0761516 	0 10 	0 	0
10.0671 	0.375539 	0 10.0537 	0.300431 	0 10.0402 	0.225305 	0 10.0268 	0.150164 	0 10.0134 	0.075012 	0 10 	0 	0
10.0362 	0.142015 	0 10.029 	0.113658 	0 10.0217 	0.0853533 	0 10.0144 	0.0571016 	0 10.0071 	0.0289028 	0 10 	0 	0
10.0136 	0.112265 	0 10.0109 	0.0898119 	0 10.0082 	0.0673584 	0 10.0055 	0.0449045 	0 10.0027 	0.0224504 	0 10 	0 	0
10.0097 	0.0205852 	0 10.0078 	0.0164682 	0 10.0058 	0.0123511 	0 10.0039 	0.00823408 	0 10.0019 	0.00411703 	0 10 	0 	0
10.0102 	-0.0364402 	0 10.0082 	-0.0291522 	0 10.0061 	-0.0218641 	0 10.0041 	-0.014576 	0 10.002 	-0.00728795 	0 10 	0 	0
10.0174 	-0.148567 	0 10.0139 	-0.118854 	0 10.0105 	-0.0891392 	0 10.007 	-0.0594236 	0 10.0035 	-0.0297074 	0 10 	0 	0
10.0362 	-0.265776 	0 10.0289 	-0.212621 	0 10.0217 	-0.159459 	0 10.0145 	-0.106292 	0 10.0072 	-0.0531209 	0 10 	0 	0
10.0562 	-0.387168 	0 10.045 	-0.309735 	0 10.0337 	-0.23228 	0 10.0225 	-0.15481 	0 10.0112 	-0.0773284 	0 10 	0 	0
8.3013 	-0.114502 	0 8.42868 	-0.0916015 	0 8.55657 	-0.0687003 	0 8.68496 	-0.0457985 	0 8.81384 	-0.0228962 	0 8.94315 	0 	0
9.72338 	0.381303 	0 9.5415 	0.55524 	0 9.39673 	0.663658 	0 9.26207 	0.754286 	0 9.21835 	0.780399 	0 8.9535 	1.27614 	0 8.70584 	1.91032 	0 8.48178 	2.72173 	0 8.46729 	2.67121 	0 8.47261 	2.45994 	0 8.50129 	2.35327 	0 8.52513 	2.24449 	0 8.51234 	2.16335 	0 8.42481 	2.14769 	0 8.30185 	2.12601 	0 8.30093 	1.98261 	0 8.28696 	1.83857 	0 8.2115 	1.72643 	0 8.03437 	1.676 	0 7.86213 	1.62686 	0 7.68221 	1.56897 	0 7.50067 	1.51041 	0 7.42642 	1.46042 	0 7.3597 	1.41014 	0 7.27682 	1.34977 	0 7.22024 	1.32681 	0 7.16346 	1.30374 	0 7.10649 	1.28055 	0 7.07597 	1.25744 	0 7.0493 	1.23427 	0 6.96974 	1.14195 	0 6.88363 	1.05597 	0 6.79352 	0.984726 	0 6.70579 	0.937079 	0 6.61595 	0.889256 	0 6.5446 	0.840645 	0 6.48606 	0.795741 	0 6.43639 	0.753421 	0 6.383 	0.710116 	0 6.30612 	0.650632 	0 6.30488 	0.649475 	0 6.30397 	0.648472 	0 6.30311 	0.647494 	0 6.30225 	0.646515 	0 6.30138 	0.645521 	0 6.26227 	0.60935 	0 6.22065 	0.572833 	0 6.17649 	0.535965 	0 6.12988 	0.498817 	0 6.09311 	0.467621 	0 6.05866 	0.432974 	0 6.02657 	0.402881 	0 5.9968 	0.377043 	0 5.97368 	0.353055 	0 5.95116 	0.329518 	0 5.92921 	0.304046 	0 5.90529 	0.278361 	0 5.88767 	0.257309 	0 5.87619 	0.239202 	0 5.86332 	0.221027 	0 5.84932 	0.20161 	0 5.83383 	0.182087 	0 5.82348 	0.16258 	0 5.81901 	0.147169 	0 5.81336 	0.131726 	0 5.80554 	0.11578 	0 5.79722 	0.099587 	0 5.79356 	0.081637 	0 5.7938 	0.0663522 	0 5.79384 	0.0515433 	0 5.79117 	0.0369849 	0 5.78902 	0.0216077 	0 5.79081 	0.00361576 	0 5.79563 	-0.013077 	0 5.80068 	-0.029328 	0 5.80289 	-0.0445755 	0 5.80557 	-0.0609761 	0 5.81249 	-0.081475 	0 5.82262 	-0.101713 	0 5.83244 	-0.12185 	0 5.83977 	-0.14029 	0 5.84617 	-0.158987 	0 5.8582 	-0.185047 	0 5.87451 	-0.212488 	0 5.88902 	-0.239813 	0 5.90199 	-0.264982 	0 5.91338 	-0.290027 	0 5.93004 	-0.323416 	0 5.95121 	-0.362884 	0 5.96998 	-0.402142 	0 5.98884 	-0.439371 	0 6.0055 	-0.476331 	0 6.02712 	-0.520719 	0 6.05109 	-0.578318 	0 6.07206 	-0.636315 	0 6.09528 	-0.693463 	0 6.12029 	-0.759696 	0 6.14461 	-0.830971 	0 6.16519 	-0.901777 	0 6.18209 	-0.982661 	0 6.19002 	-1.01539 	0 6.19874 	-1.0562 	0 6.2068 	-1.09747 	0 6.21408 	-1.13861 	0 6.21856 	-1.16682 	0 6.22539 	-1.22672 	0 6.23012 	-1.28577 	0 6.23277 	-1.344 	0 6.23568 	-1.40823 	0 6.24118 	-1.48693 	0 6.25563 	-1.61158 	0 6.26391 	-1.73423 	0 6.24501 	-1.86791 	3.23595e-21 6.20358 	-2.01805 	2.95186e-20 6.15253 	-2.17357 	5.94711e-20 6.13692 	-2.26086 	-4.90046e-20 6.11405 	-2.34279 	-8.08548e-20 6.08362 	-2.41907 	-3.12931e-20 6.05154 	-2.49458 	2.03469e-20 6.02805 	-2.54663 	5.77543e-20 6.00798 	-2.61003 	1.35056e-19 5.98707 	-2.67316 	2.14407e-19 5.96531 	-2.73603 	2.958e-19 5.93295 	-2.78986 	1.97577e-19 5.89568 	-2.84343 	4.7713e-20 5.81494 	-2.96672 	3.33928e-20 5.72948 	-3.08816 	2.04656e-20 5.63362 	-3.19597 	-4.272e-21 5.531 	-3.29718 	-3.29595e-20 5.40869 	-3.40381 	-5.51684e-20 5.4017 	-3.40999 	-6.56638e-20 5.39469 	-3.41617 	-7.61514e-20 5.38772 	-3.42134 	-7.38108e-20 5.38075 	-3.42618 	-6.73535e-20 5.37391 	-3.43091 	-6.10163e-20 5.25672 	-3.52666 	-4.3021e-20 5.135 	-3.62124 	-2.39082e-20 5.01131 	-3.7045 	-1.12234e-20 4.88797 	-3.7685 	-1.09583e-20 4.74029 	-3.84129 	-9.66797e-21 4.72848 	-3.84728 	-5.99893e-21 4.71663 	-3.85327 	-2.32805e-21 4.70516 	-3.85842 	1.83598e-21 4.69435 	-3.86217 	6.85301e-21 4.68376 	-3.86581 	1.17571e-20 4.55798 	-3.92415 	6.3248e-21 4.42834 	-3.9812 	9.14043e-23 4.30214 	-4.021 	2.56747e-21 4.18149 	-4.04573 	5.47864e-21 4.08454 	-4.06388 	7.99285e-21 4.0564 	-4.0727 	1.3413e-20 4.02827 	-4.08122 	1.82251e-20 4.00445 	-4.0845 	8.45251e-21 3.98051 	-4.08774 	-1.30285e-21 3.95541 	-4.09105 	-1.14553e-20 3.87837 	-4.10413 	-6.71956e-20 3.8001 	-4.11662 	-1.22439e-19 3.7206 	-4.12849 	-1.77166e-19 3.65096 	-4.12917 	-1.14035e-19 3.58852 	-4.12849 	-4.76869e-20 3.50253 	-4.13863 	9.19534e-21 3.41632 	-4.14559 	5.5298e-20 3.33507 	-4.14023 	4.83022e-20 3.2525 	-4.13423 	4.1732e-20 3.17483 	-4.12413 	2.29252e-20 3.16634 	-4.12451 	2.22766e-20 3.1579 	-4.12437 	2.17449e-20 3.14965 	-4.12298 	2.1498e-20 3.14138 	-4.12159 	2.12502e-20 3.13296 	-4.12017 	2.09975e-20 3.06791 	-4.11405 	1.47001e-20 3.00188 	-4.10731 	8.40038e-21 2.93486 	-4.09993 	2.09869e-21 2.86728 	-4.08432 	4.49948e-21 2.80372 	-4.0661 	1.03282e-20 2.73859 	-4.05968 	4.58375e-20 2.67259 	-4.05094 	7.13113e-20 2.60715 	-4.03117 	3.1603e-20 2.54071 	-4.01078 	-7.89333e-21 2.47603 	-3.98576 	-5.63779e-20 2.46805 	-3.98416 	-6.09068e-20 2.46018 	-3.9821 	-6.39361e-20 2.45258 	-3.97894 	-6.33927e-20 2.44497 	-3.97577 	-6.28509e-20 2.4372 	-3.97253 	-6.23005e-20 2.38557 	-3.95538 	-8.66682e-20 2.33326 	-3.93767 	-1.10768e-19 2.28025 	-3.91939 	-1.34592e-19 2.22773 	-3.8946 	-1.04791e-19 2.17756 	-3.86782 	-5.2374e-20 2.12525 	-3.85044 	5.0965e-20 2.0724 	-3.83143 	1.43618e-19 2.02167 	-3.80329 	1.36726e-19 1.9702 	-3.77458 	1.30366e-19 1.9211 	-3.74208 	9.9835e-20 1.91457 	-3.73914 	9.41028e-20 1.90821 	-3.73584 	8.9562e-20 1.90231 	-3.73164 	8.81623e-20 1.8964 	-3.72743 	8.6759e-20 1.89037 	-3.72313 	8.53254e-20 1.85096 	-3.69972 	5.94247e-20 1.81111 	-3.67584 	3.35748e-20 1.77078 	-3.65149 	7.778e-21 1.7322 	-3.62187 	-8.22549e-21 1.69533 	-3.59074 	-1.96322e-20 1.65528 	-3.56588 	-1.53641e-20 1.61526 	-3.53949 	-1.51149e-20 1.57879 	-3.50645 	-4.08974e-20 1.54183 	-3.47298 	-6.65376e-20 1.50707 	-3.4381 	-9.37367e-20 1.50402 	-3.43563 	-9.28848e-20 1.50107 	-3.43303 	-9.08357e-20 1.49854 	-3.42999 	-8.45332e-20 1.496 	-3.42694 	-7.82305e-20 1.49343 	-3.42386 	-7.18681e-20 1.46367 	-3.39481 	-2.8799e-20 1.43361 	-3.3654 	1.44436e-20 1.40323 	-3.33562 	5.78639e-20 1.37601 	-3.30132 	9.91936e-20 1.35015 	-3.26612 	1.39173e-19 1.32541 	-3.23912 	2.14305e-19 1.30125 	-3.21105 	2.67096e-19 1.28099 	-3.17895 	2.10682e-19 1.26057 	-3.1467 	1.54544e-19 1.23843 	-3.11182 	9.44561e-20 1.23593 	-3.10868 	9.27245e-20 1.23343 	-3.10553 	9.09944e-20 1.23093 	-3.10238 	8.92658e-20 1.22877 	-3.09889 	9.29391e-20 1.22673 	-3.09529 	9.81757e-20 1.2049 	-3.06063 	1.83902e-19 1.1846 	-3.0252 	2.47374e-19 1.16438 	-2.98943 	3.04551e-19 1.14948 	-2.94932 	2.02062e-19 1.1347 	-2.90952 	1.00342e-19 1.12705 	-2.892 	9.98893e-21 1.11939 	-2.87446 	-8.03743e-20 1.11466 	-2.85504 	-6.72758e-20 1.10998 	-2.83565 	-5.3861e-20 1.10535 	-2.81636 	-4.0368e-20 1.09801 	-2.79788 	-1.07295e-19 1.09067 	-2.77941 	-1.7422e-19 1.08333 	-2.76093 	-2.4114e-19 1.0787 	-2.74065 	-1.81949e-19 1.07409 	-2.72041 	-1.2273e-19 1.06554 	-2.68617 	-6.60912e-20 1.05711 	-2.65206 	-9.3821e-21 1.05312 	-2.61565 	2.20733e-20 1.05009 	-2.57913 	4.96491e-20 1.04752 	-2.54492 	7.57886e-20 1.04659 	-2.54085 	8.63751e-20 1.04566 	-2.53679 	9.69667e-20 1.04483 	-2.53267 	1.03965e-19 1.04445 	-2.52829 	9.43856e-20 1.04408 	-2.52391 	8.47968e-20 1.04069 	-2.48257 	5.08855e-20 1.0377 	-2.44166 	1.70422e-20 1.03831 	-2.40107 	3.29672e-23 1.04294 	-2.36112 	-1.55306e-21 1.04829 	-2.32091 	-2.85014e-21 1.04844 	-2.31951 	-1.63752e-21 1.04858 	-2.31812 	-4.2462e-22 1.04884 	-2.31674 	0 1.04914 	-2.31537 	0 1.04945 	-2.314 	0 1.05196 	-2.27568 	0 1.0549 	-2.23785 	0 1.05974 	-2.20072 	1.07029e-20 1.06769 	-2.16453 	4.07911e-20 1.07656 	-2.12764 	7.22373e-20 1.07758 	-2.12365 	7.22104e-20 1.07861 	-2.11966 	7.2189e-20 1.0798 	-2.11566 	7.21724e-20 1.08113 	-2.11164 	7.2161e-20 1.08244 	-2.10773 	7.21557e-20 1.08934 	-2.0739 	4.34055e-20 1.09674 	-2.04058 	1.44699e-20 1.10576 	-2.00771 	1.45977e-20 1.11643 	-1.97531 	4.38089e-20 1.12833 	-1.94182 	7.4816e-20 1.12927 	-1.93941 	7.49604e-20 1.13021 	-1.937 	7.51075e-20 1.13118 	-1.93459 	7.48193e-20 1.13221 	-1.93217 	7.37409e-20 1.13324 	-1.9298 	7.26813e-20 1.14381 	-1.89614 	1.73517e-19 1.15503 	-1.86311 	2.76962e-19 1.16765 	-1.83077 	2.37681e-19 1.18178 	-1.79927 	7.33554e-20 1.19388 	-1.77438 	-6.13928e-20 1.1952 	-1.77093 	-8.20986e-20 1.19652 	-1.76749 	-1.02835e-19 1.19794 	-1.76406 	-9.99063e-20 1.19938 	-1.76065 	-9.13726e-20 1.20085 	-1.75721 	-8.27632e-20 1.21197 	-1.73181 	-6.00888e-20 1.22361 	-1.70686 	-3.75886e-20 1.23576 	-1.68242 	-1.77617e-20 1.24841 	-1.65868 	-8.91975e-21 1.25956 	-1.63899 	-1.66207e-21 1.26618 	-1.62516 	1.10368e-20 1.27295 	-1.61146 	2.37262e-20 1.2798 	-1.59811 	2.28479e-20 1.28681 	-1.5849 	2.14003e-20 1.29435 	-1.57111 	1.982e-20 1.30085 	-1.55992 	3.37451e-20 1.30748 	-1.54883 	4.75514e-20 1.31423 	-1.53785 	6.12375e-20 1.3207 	-1.52729 	2.39998e-20 1.32681 	-1.51758 	-1.26282e-20 1.34011 	-1.49329 	-7.59588e-20 1.35395 	-1.46944 	-1.40088e-19 1.36749 	-1.44669 	-1.14331e-19 1.38158 	-1.42469 	-6.51974e-20 1.39446 	-1.40635 	-1.47191e-20 1.3976 	-1.40136 	-6.25219e-21 1.40071 	-1.39645 	8.53062e-22 1.40366 	-1.39169 	3.68612e-21 1.40663 	-1.38695 	6.52142e-21 1.40971 	-1.38209 	9.44187e-21 1.42018 	-1.36622 	1.2489e-20 1.43094 	-1.35057 	1.56305e-20 1.44199 	-1.33516 	1.88667e-20 1.45236 	-1.32062 	2.22615e-20 1.46175 	-1.30778 	2.54593e-20 1.47548 	-1.28733 	8.03588e-20 1.48968 	-1.26723 	1.35969e-19 1.50262 	-1.24864 	1.07041e-19 1.51602 	-1.23061 	6.44875e-20 1.5286 	-1.21506 	5.87275e-21 1.53342 	-1.20868 	1.89573e-21 1.53799 	-1.20253 	-1.33317e-22 1.54229 	-1.19663 	-1.09083e-22 1.54663 	-1.19076 	-8.47781e-23 1.55124 	-1.18462 	-5.91456e-23 1.56002 	-1.1734 	-1.07065e-23 1.56897 	-1.1623 	3.80035e-23 1.57809 	-1.15134 	8.69817e-23 1.58666 	-1.14098 	1.11361e-22 1.59416 	-1.13179 	1.08679e-22 1.60759 	-1.11436 	-6.80301e-20 1.6214 	-1.0972 	-1.36708e-19 1.63472 	-1.08144 	-1.34528e-19 1.64689 	-1.06705 	-7.11913e-20 1.65848 	-1.05395 	-1.20209e-20 1.67267 	-1.03728 	-1.80435e-20 1.68553 	-1.02196 	-2.40684e-20 1.69792 	-1.00739 	-3.0048e-20 1.71063 	-0.993061 	-3.59346e-20 1.72284 	-0.979937 	-4.13561e-20 1.72385 	-0.978857 	-5.10457e-20 1.72472 	-0.977865 	-4.97446e-20 1.72555 	-0.976896 	-4.56124e-20 1.72639 	-0.975928 	-4.14831e-20 1.72724 	-0.974949 	-3.73066e-20 1.73878 	-0.961927 	-9.29405e-22 1.75059 	-0.94909 	3.52132e-20 1.76266 	-0.936439 	7.112e-20 1.77446 	-0.924322 	9.22268e-20 1.78386 	-0.914287 	5.56979e-20 1.79701 	-0.900036 	1.01381e-19 1.81047 	-0.88601 	1.4663e-19 1.82321 	-0.873327 	1.61782e-19 1.83383 	-0.862345 	1.33167e-19 1.84421 	-0.851998 	1.05749e-19 1.85794 	-0.838316 	1.29656e-19 1.87117 	-0.8253 	1.45572e-19 1.88231 	-0.813912 	1.36885e-19 1.89354 	-0.802883 	1.2085e-19 1.90421 	-0.792911 	8.69908e-20 1.91558 	-0.782375 	1.13464e-19 1.92459 	-0.773444 	9.82034e-20 1.93375 	-0.764607 	8.30428e-20 1.94307 	-0.755866 	6.79816e-20 1.95405 	-0.745848 	5.06473e-20 1.95599 	-0.744156 	4.82971e-20 1.95793 	-0.742467 	4.59489e-20 1.95989 	-0.740782 	4.36028e-20 1.96184 	-0.7391 	4.12589e-20 1.9633 	-0.737747 	4.20009e-20 1.97479 	-0.72693 	3.67573e-20 1.98633 	-0.716452 	3.31393e-20 1.9981 	-0.706107 	2.95889e-20 2.01 	-0.695953 	2.63826e-20 2.01837 	-0.688259 	3.33285e-20 2.03087 	-0.677206 	2.27889e-20 2.04313 	-0.666706 	1.92845e-20 2.05511 	-0.656775 	2.31331e-20 2.06416 	-0.648785 	4.46014e-20 2.07257 	-0.641412 	6.91368e-20 2.08541 	-0.630801 	4.10949e-20 2.09849 	-0.62031 	1.30347e-20 2.10904 	-0.611533 	5.61188e-21 2.11744 	-0.604257 	2.03835e-20 2.12584 	-0.59719 	3.49593e-20 2.13897 	-0.587009 	1.4366e-20 2.1511 	-0.577583 	6.23937e-21 2.16063 	-0.569751 	2.69201e-20 2.16976 	-0.562326 	5.06327e-20 2.1781 	-0.555553 	7.8359e-20 2.19146 	-0.545789 	1.24259e-19 2.20101 	-0.538164 	1.20691e-19 2.2106 	-0.530682 	1.15565e-19 2.22035 	-0.523274 	1.10529e-19 2.22929 	-0.516436 	8.08624e-20 2.23729 	-0.510672 	6.77602e-20 2.24362 	-0.50579 	5.04847e-20 2.25003 	-0.50094 	3.31884e-20 2.25651 	-0.49612 	1.58716e-20 2.26394 	-0.490684 	-3.80641e-21 2.26696 	-0.488539 	-1.23558e-20 2.26999 	-0.4864 	-2.09053e-20 2.27304 	-0.484268 	-2.9455e-20 2.2761 	-0.482141 	-3.80048e-20 2.2784 	-0.480425 	-4.3061e-20 2.28813 	-0.473274 	-4.51248e-20 2.29761 	-0.466403 	-5.07478e-20 2.30725 	-0.459594 	-5.64385e-20 2.31703 	-0.452845 	-6.21962e-20 2.32361 	-0.447829 	-7.87609e-20 2.3347 	-0.440358 	-1.21212e-19 2.34413 	-0.433799 	-1.09442e-19 2.3537 	-0.427296 	-9.75455e-20 2.36233 	-0.421359 	-7.04792e-20 2.36745 	-0.417197 	6.16921e-21 2.37882 	-0.409977 	1.46451e-19 2.3893 	-0.403246 	2.34502e-19 2.39878 	-0.397039 	2.65541e-19 2.405 	-0.392399 	1.87666e-19 2.40988 	-0.388451 	6.50329e-20 2.42132 	-0.381559 	1.13515e-19 2.43292 	-0.374718 	1.62056e-19 2.44172 	-0.369043 	1.43242e-19 2.44628 	-0.365254 	6.07987e-20 2.4509 	-0.36151 	-2.12443e-20 2.46237 	-0.354936 	-1.58059e-19 2.474 	-0.348408 	-2.94921e-19 2.48185 	-0.343422 	-2.87879e-19 2.48612 	-0.339835 	-1.41102e-19 2.49046 	-0.336287 	5.07248e-21 2.50194 	-0.330019 	7.92269e-20 2.51357 	-0.323792 	1.53375e-19 2.5205 	-0.319467 	1.48576e-19 2.52454 	-0.316056 	8.19934e-20 2.52858 	-0.312695 	1.44263e-20 2.54004 	-0.306723 	1.02149e-20 2.55005 	-0.301368 	3.01173e-21 2.55657 	-0.297367 	-1.10044e-20 2.5615 	-0.293825 	-2.26187e-20 2.56523 	-0.290642 	-3.2389e-20 2.57665 	-0.284956 	-2.38907e-20 2.58481 	-0.280475 	-1.53763e-20 2.59118 	-0.276683 	-6.8489e-21 2.59701 	-0.273056 	0 2.60042 	-0.270043 	0 2.61178 	-0.264631 	0 2.61815 	-0.260931 	-9.27203e-21 2.62434 	-0.257337 	-1.9024e-20 2.63062 	-0.253762 	-2.87679e-20 2.63417 	-0.250811 	-4.58426e-20 2.64413 	-0.246073 	-8.68234e-20 2.65006 	-0.242653 	-8.35918e-20 2.65608 	-0.239249 	-8.04143e-20 2.66218 	-0.235862 	-7.72905e-20 2.66647 	-0.232862 	-4.58145e-20 2.67483 	-0.228803 	-3.24202e-20 2.68058 	-0.225566 	-2.37787e-20 2.6864 	-0.222343 	-1.51277e-20 2.69231 	-0.219135 	-6.46717e-21 2.69734 	-0.216114 	-2.42432e-21 2.7041 	-0.212688 	-1.48996e-20 2.70961 	-0.209652 	-1.1246e-20 2.7152 	-0.206629 	-7.65481e-21 2.72085 	-0.203619 	-4.12559e-21 2.72681 	-0.200492 	-6.1631e-23 2.72701 	-0.200396 	-4.03229e-22 2.72716 	-0.200311 	-3.02076e-22 2.72732 	-0.200225 	-2.00975e-22 2.72747 	-0.20014 	-9.9926e-23 2.72763 	-0.200054 	1.61763e-24 2.7328 	-0.197228 	3.33292e-21 2.73803 	-0.194414 	6.6077e-21 2.74334 	-0.191611 	9.82628e-21 2.74871 	-0.188818 	1.2989e-20 2.75294 	-0.186374 	2.00928e-21 2.75894 	-0.183454 	1.25295e-20 2.76412 	-0.18071 	6.86329e-21 2.76938 	-0.177977 	1.13335e-21 2.7747 	-0.175254 	-4.65994e-21 2.77772 	-0.173169 	-3.99913e-20 2.7844 	-0.170259 	-3.72837e-20 2.78938 	-0.167665 	-3.65542e-20 2.79443 	-0.165081 	-3.58379e-20 2.79954 	-0.162505 	-3.51346e-20 2.80125 	-0.160808 	-4.29793e-20 2.8086 	-0.157928 	-7.90027e-20 2.81337 	-0.155476 	-7.21865e-20 2.81821 	-0.153033 	-6.53265e-20 2.82311 	-0.150597 	-5.8423e-20 2.82358 	-0.149235 	-8.59196e-23 2.83155 	-0.146402 	1.47164e-21 2.83613 	-0.144086 	1.03737e-20 2.84076 	-0.141776 	1.92819e-20 2.84545 	-0.139474 	2.81963e-20 2.84474 	-0.138401 	5.03895e-20 2.85331 	-0.135629 	1.73917e-19 2.85768 	-0.13344 	1.77933e-19 2.8621 	-0.131257 	1.81872e-19 2.86612 	-0.12918 	1.75618e-19 2.86477 	-0.128257 	5.13674e-20 2.87327 	-0.125634 	2.84307e-20 2.87807 	-0.123488 	9.33119e-21 2.88228 	-0.121426 	-9.12886e-21 2.88528 	-0.119625 	-2.55327e-20 2.8837 	-0.118757 	-3.44583e-20 2.89209 	-0.116282 	-9.87679e-20 2.89732 	-0.114183 	-1.17934e-19 2.90133 	-0.112236 	-1.19361e-19 2.90337 	-0.110676 	-9.97593e-20 2.90156 	-0.109858 	-3.97559e-20 2.90984 	-0.107524 	-2.58273e-20 2.91547 	-0.105481 	-1.98858e-20 2.91929 	-0.103642 	-1.94719e-20 2.92043 	-0.102293 	-1.90694e-20 2.9184 	-0.101522 	-1.86762e-20 2.92656 	-0.0993205 	5.54621e-20 2.93257 	-0.0973405 	9.53126e-20 2.93619 	-0.0956036 	9.73083e-20 2.93649 	-0.0944375 	5.41007e-20 2.93425 	-0.0937101 	-2.38568e-20 2.9423 	-0.0916358 	-1.90064e-20 2.94865 	-0.0897235 	-9.15658e-21 2.95207 	-0.0880838 	9.21909e-21 2.9516 	-0.0870758 	1.82747e-20 2.94915 	-0.0863888 	2.25976e-20 2.95708 	-0.0844352 	1.77546e-20 2.96375 	-0.0825945 	1.41508e-20 2.96698 	-0.0810468 	1.38189e-20 2.96578 	-0.080175 	2.0538e-20 2.96314 	-0.0795255 	2.95697e-20 2.97094 	-0.0776866 	2.0221e-20 2.97789 	-0.0759205 	1.08778e-20 2.98094 	-0.07446 	1.54228e-21 2.97907 	-0.073705 	7.78734e-21 2.97624 	-0.0730904 	1.71134e-20 2.98393 	-0.0713604 	8.06885e-21 2.99113 	-0.0696708 	1.96067e-21 2.99399 	-0.0682929 	2.00678e-20 2.99151 	-0.0676378 	5.51365e-20 2.9885 	-0.0670556 	9.18939e-20 2.99606 	-0.0654291 	5.51256e-20 3.00349 	-0.0638171 	1.9713e-20 3.00617 	-0.0625174 	1.92204e-20 3.00312 	-0.0619472 	4.60034e-20 2.99994 	-0.0613951 	7.3437e-20 3.00738 	-0.0598669 	4.57648e-20 3.01487 	-0.0583408 	1.80962e-20 3.0173 	-0.0571335 	0 3.01394 	-0.056609 	0 3.0106 	-0.056085 	0 3.01792 	-0.05465 	0 3.02529 	-0.0532169 	0 3.02751 	-0.0520989 	8.26715e-22 3.02401 	-0.0516006 	1.00485e-20 3.02051 	-0.0511028 	1.92686e-20 3.02771 	-0.0497564 	8.34562e-20 3.03495 	-0.0484116 	1.47641e-19 3.037 	-0.047375 	1.47736e-19 3.03334 	-0.0469012 	8.37829e-20 3.0297 	-0.0464279 	1.98332e-20 3.03678 	-0.0451655 	1.07372e-20 3.0439 	-0.0439046 	1.63782e-21 3.04577 	-0.0429424 	1.68674e-21 3.04198 	-0.0424915 	1.08741e-20 3.0382 	-0.042041 	2.006e-20 3.04516 	-0.0408584 	1.10132e-20 3.05216 	-0.039677 	1.9633e-21 3.05387 	-0.0387829 	2.32946e-20 3.04995 	-0.0383535 	5.96634e-20 3.04604 	-0.0379243 	9.60324e-20 3.05289 	-0.0368174 	1.32344e-19 3.05976 	-0.0357115 	1.68661e-19 3.06132 	-0.0348797 	1.63881e-19 3.05728 	-0.0344703 	1.08983e-19 3.05325 	-0.0340612 	5.40904e-20 3.05997 	-0.0330261 	3.56457e-20 3.06673 	-0.0319918 	1.72117e-20 3.06815 	-0.0312172 	-1.16737e-20 3.06399 	-0.0308266 	-3.89874e-20 3.05985 	-0.0304362 	-6.62993e-20 3.06646 	-0.0294692 	3.36093e-20 3.0731 	-0.0285029 	1.33521e-19 3.07439 	-0.0277807 	1.39002e-19 3.07012 	-0.0274078 	5.72554e-20 3.06587 	-0.027035 	-2.44902e-20 3.07237 	-0.0261325 	5.71849e-20 3.07889 	-0.0252306 	1.38858e-19 3.08005 	-0.0245568 	1.5699e-19 3.07569 	-0.0242004 	1.11686e-19 3.07134 	-0.0238442 	6.63824e-20 3.07772 	-0.0230029 	1.11628e-19 3.08413 	-0.0221621 	1.56872e-19 3.08518 	-0.0215326 	1.65743e-19 3.08072 	-0.0211918 	1.29499e-19 3.07628 	-0.0208512 	9.3256e-20 3.08255 	-0.0200679 	5.70383e-20 3.08885 	-0.019285 	2.08247e-20 3.08979 	-0.0186965 	1.48792e-20 3.08524 	-0.0183704 	4.18868e-20 3.08071 	-0.0180445 	6.88947e-20 3.08688 	-0.0173161 	4.18522e-20 3.09307 	-0.0165881 	1.48116e-20 3.0939 	-0.0160374 	6.29577e-22 3.08928 	-0.0157252 	9.66195e-21 3.08466 	-0.0154131 	1.86921e-20 3.09072 	-0.0147367 	8.16023e-20 3.0968 	-0.0140607 	1.44507e-19 3.09754 	-0.013545 	1.49552e-19 3.09284 	-0.0132459 	8.67091e-20 3.08815 	-0.0129469 	2.38675e-20 3.09411 	-0.0123198 	-1.28595e-19 3.10009 	-0.0116929 	-2.81056e-19 3.10074 	-0.0112098 	-2.81757e-19 3.09597 	-0.0109231 	-1.38363e-19 3.09121 	-0.0106364 	5.03246e-21 3.09707 	-0.010056 	5.05626e-21 3.10294 	-0.00947566 	5.08606e-21 3.1035 	-0.00902273 	1.20412e-20 3.09867 	-0.00874774 	3.86661e-20 3.09385 	-0.00847281 	6.52903e-20 3.09961 	-0.00793645 	2.52662e-19 3.10538 	-0.00740022 	4.40031e-19 3.10586 	-0.00697543 	4.43151e-19 3.10098