# vtk DataFile Version 2.0
track0
ASCII
DATASET POLYDATA
POINTS 12278 float
-0.0205 0.001 1e-05
-0.02052 0.000999216 1e-05
-0.02054 0.000998592 1e-05
-0.02056 0.000998126 1e-05
-0.02058 0.000997818 1e-05
-0.0206 0.000997665 1e-05
-0.0205 0.00367778 1e-05
-0.02052 0.00367703 1e-05
-0.02054 0.00367643 1e-05
-0.02056 0.00367599 1e-05
-0.02058 0.00367569 1e-05
-0.0206 0.00367554 1e-05
-0.0205 0.00635556 1e-05
-0.02052 0.00635527 1e-05
-0.02054 0.00635505 1e-05
-0.02056 0.00635488 1e-05
-0.02058 0.00635476 1e-05
-0.0206 0.00635471 1e-05
-0.0205 0.00903333 1e-05
-0.02052 0.00903311 1e-05
-0.02054 0.00903293 1e-05
-0.02056 0.0090328 1e-05
-0.02058 0.00903271 1e-05
-0.0206 0.00903266 1e-05
-0.0205 0.0117111 1e-05
-0.02052 0.0117111 1e-05
-0.02054 0.011711 1e-05
-0.02056 0.011711 1e-05
-0.02058 0.011711 1e-05
-0.0206 0.011711 1e-05
-0.0205 0.0143889 1e-05
-0.02052 0.014389 1e-05
-0.02054 0.014389 1e-05
-0.02056 0.0143891 1e-05
-0.02058 0.0143891 1e-05
-0.0206 0.0143891 1e-05
-0.0205 0.0170667 1e-05
-0.02052 0.017067 1e-05
-0.02054 0.0170672 1e-05
-0.02056 0.0170674 1e-05
-0.02058 0.0170675 1e-05
-0.0206 0.0170676 1e-05
-0.0205 0.0197444 1e-05
-0.02052 0.019745 1e-05
-0.02054 0.0197454 1e-05
-0.02056 0.0197457 1e-05
-0.02058 0.0197459 1e-05
-0.0206 0.019746 1e-05
-0.0205 0.0224222 1e-05
-0.02052 0.022423 1e-05
-0.02054 0.0224236 1e-05
-0.02056 0.0224241 1e-05
-0.02058 0.0224244 1e-05
-0.0206 0.0224245 1e-05
-0.0205 0.0251 1e-05
-0.02052 0.0251003 1e-05
-0.02054 0.0251005 1e-05
-0.02056 0.0251007 1e-05
-0.02058 0.0251008 1e-05
-0.0206 0.0251008 1e-05
-0.0205 0.001 1e-05
-0.0203632 0.00100536 1e-05
-0.0202266 0.00101331 1e-05
-0.0200901 0.00102296 1e-05
-0.0200427 0.00102682 1e-05
-0.0198376 0.00104418 1e-05
-0.0196338 0.00107322 1e-05
-0.0194327 0.00111734 1e-05
-0.0192368 0.00118024 1e-05
-0.0190172 0.00124951 1e-05
-0.0189002 0.00128348 1e-05
-0.0187827 0.00131598 1e-05
-0.0186649 0.001347 1e-05
-0.0185469 0.001377 1e-05
-0.0183807 0.00141936 1e-05
-0.0182041 0.00146458 1e-05
-0.0180267 0.00150692 1e-05
-0.0178487 0.0015464 1e-05
-0.0176703 0.00158389 1e-05
-0.0174976 0.00161991 1e-05
-0.0172846 0.00166394 1e-05
-0.0170715 0.00170741 1e-05
-0.0168583 0.00175029 1e-05
-0.0166449 0.00179219 1e-05
-0.0163945 0.00184007 1e-05
-0.0163234 0.00185324 1e-05
-0.0162522 0.00186629 1e-05
-0.016181 0.00187921 1e-05
-0.0161097 0.00189201 1e-05
-0.0160387 0.0019046 1e-05
-0.0157586 0.0019535 1e-05
-0.0154779 0.00199931 1e-05
-0.0151968 0.00204225 1e-05
-0.0149154 0.00208283 1e-05
-0.0146381 0.00212134 1e-05
-0.0143838 0.00215527 1e-05
-0.0141293 0.00218766 1e-05
-0.0138747 0.00221855 1e-05
-0.0136198 0.00224797 1e-05
-0.0132934 0.00228369 1e-05
-0.0132791 0.00228515 1e-05
-0.0132648 0.0022866 1e-05
-0.0132504 0.00228805 1e-05
-0.0132361 0.0022895 1e-05
-0.0132214 0.00229098 1e-05
-0.0129776 0.00231543 1e-05
-0.0127337 0.00233865 1e-05
-0.0124897 0.00236061 1e-05
-0.0122456 0.00238129 1e-05
-0.0120025 0.00240058 1e-05
-0.0117547 0.00241909 1e-05
-0.0115067 0.00243627 1e-05
-0.0112587 0.00245231 1e-05
-0.0110106 0.00246734 1e-05
-0.0107632 0.00248136 1e-05
-0.0105252 0.00249391 1e-05
-0.0102872 0.00250547 1e-05
-0.0100491 0.00251602 1e-05
-0.00981105 0.00252575 1e-05
-0.00957337 0.00253472 1e-05
-0.00934491 0.00254261 1e-05
-0.00911643 0.00254974 1e-05
-0.00888792 0.00255611 1e-05
-0.0086594 0.00256172 1e-05
-0.00843108 0.00256669 1e-05
-0.00821175 0.00257085 1e-05
-0.00799241 0.00257439 1e-05
-0.00777306 0.00257731 1e-05
-0.0075537 0.00257953 1e-05
-0.00733443 0.00258115 1e-05
-0.00712387 0.00258213 1e-05
-0.0069133 0.00258256 1e-05
-0.00670273 0.00258244 1e-05
-0.00649216 0.00258163 1e-05
-0.0062816 0.00258019 1e-05
-0.00607944 0.0025782 1e-05
-0.0058773 0.00257567 1e-05
-0.00567516 0.00257258 1e-05
-0.00547303 0.00256876 1e-05
-0.00527083 0.00256421 1e-05
-0.00507675 0.00255914 1e-05
-0.00488269 0.00255345 1e-05
-0.00468865 0.00254713 1e-05
-0.00449464 0.00254 1e-05
-0.00430044 0.00253193 1e-05
-0.00411412 0.00252332 1e-05
-0.00392784 0.00251391 1e-05
-0.00374159 0.00250372 1e-05
-0.0035554 0.00249258 1e-05
-0.00336883 0.00248019 1e-05
-0.00318995 0.00246715 1e-05
-0.00301115 0.00245303 1e-05
-0.00283245 0.00243778 1e-05
-0.00265386 0.00242125 1e-05
-0.00247443 0.00240318 1e-05
-0.0023027 0.0023843 1e-05
-0.00213114 0.00236389 1e-05
-0.00195982 0.00234159 1e-05
-0.00178875 0.00231743 1e-05
-0.00161577 0.00229111 1e-05
-0.00161561 0.00229108 1e-05
-0.00161545 0.00229106 1e-05
-0.00161529 0.00229103 1e-05
-0.00161513 0.002291 1e-05
-0.00161496 0.00229098 1e-05
-0.00145026 0.00226408 1e-05
-0.00128595 0.00223483 1e-05
-0.00112206 0.00220329 1e-05
-0.000958628 0.00216951 1e-05
-0.000791418 0.00213242 1e-05
-0.000633135 0.00209432 1e-05
-0.000475556 0.00205339 1e-05
-0.000318719 0.00200971 1e-05
-0.000162834 0.00196274 1e-05
0 0.00190959 1e-05
3.73825e-05 0.00189638 1e-05
7.46648e-05 0.00188288 1e-05
0.000111848 0.00186912 1e-05
0.000148934 0.00185509 1e-05
0.000179271 0.00184338 1e-05
0.000249094 0.00181596 1e-05
0.000318507 0.00178751 1e-05
0.000387495 0.00175805 1e-05
0.000456044 0.00172758 1e-05
0.000528387 0.00169422 1e-05
0.000634886 0.00164324 1e-05
0.000740278 0.00159001 1e-05
0.00084451 0.00153455 1e-05
0.000947621 0.00147703 1e-05
0.00102005 0.00143469 1e-05
0.00102822 0.00142975 1e-05
0.00103637 0.0014248 1e-05
0.00104452 0.00141984 1e-05
0.00105266 0.00141485 1e-05
0.00106088 0.0014098 1e-05
0.00116821 0.00134362 1e-05
0.00127404 0.00127507 1e-05
0.00137827 0.00120412 1e-05
0.00148099 0.00113099 1e-05
0.00159686 0.00104511 1e-05
0.00159699 0.00104501 1e-05
0.00159712 0.0010449 1e-05
0.00159725 0.0010448 1e-05
0.00159739 0.0010447 1e-05
0.00159752 0.0010446 1e-05
0.00169222 0.000971002 1e-05
0.00178552 0.00089564 1e-05
0.00187734 0.000818478 1e-05
0.00196775 0.00073966 1e-05
0.00203816 0.000676368 1e-05
0.00205819 0.000657907 1e-05
0.00207814 0.000639358 1e-05
0.00209801 0.000620719 1e-05
0.00211782 0.000602017 1e-05
0.00213833 0.000582535 1e-05
0.0021915 0.000531687 1e-05
0.00224417 0.000480321 1e-05
0.00229632 0.00042843 1e-05
0.00234794 0.000376008 1e-05
0.00239426 0.000328255 1e-05
0.00245208 0.000267828 1e-05
0.00250926 0.000206801 1e-05
0.00256581 0.000145192 1e-05
0.00262186 8.31167e-05 1e-05
0.00268334 1.38365e-05 1e-05
0.00268575 1.10692e-05 1e-05
0.00268815 8.30086e-06 1e-05
0.00269056 5.53148e-06 1e-05
0.00269296 2.76105e-06 1e-05
0.00269536 0 1e-05
0.00275925 -7.37369e-05 1e-05
0.00282253 -0.000148005 1e-05
0.00288517 -0.000222814 1e-05
0.00294715 -0.000298174 1e-05
0.00300422 -0.000368654 1e-05
0.00304989 -0.000425895 1e-05
0.00309526 -0.000483381 1e-05
0.00314031 -0.000541109 1e-05
0.00318512 -0.000599031 1e-05
0.00323259 -0.000660962 1e-05
0.00325067 -0.000684789 1e-05
0.00326869 -0.000708655 1e-05
0.00328667 -0.000732561 1e-05
0.00330458 -0.000756508 1e-05
0.00332216 -0.000780091 1e-05
0.0033903 -0.000871878 1e-05
0.00345784 -0.000964108 1e-05
0.00352476 -0.00105679 1e-05
0.00359113 -0.00114986 1e-05
0.00365399 -0.00123896 1e-05
0.00368042 -0.00127681 1e-05
0.00370676 -0.00131471 1e-05
0.00373304 -0.00135266 1e-05
0.00375926 -0.00139065 1e-05
0.00378611 -0.00142967 1e-05
0.00383012 -0.00149383 1e-05
0.00387392 -0.00155814 1e-05
0.00391749 -0.0016226 1e-05
0.00396084 -0.0016872 1e-05
0.00400302 -0.00175044 1e-05
0.0040712 -0.00185323 1e-05
0.00413897 -0.0019563 1e-05
0.00420631 -0.00205965 1e-05
0.00427336 -0.00216319 1e-05
0.00434393 -0.00227282 1e-05
0.00435 -0.00228232 1e-05
0.00435607 -0.00229182 1e-05
0.00436213 -0.00230132 1e-05
0.00436819 -0.00231082 1e-05
0.00437423 -0.0023203 1e-05
0.00445507 -0.00244725 1e-05
0.00453546 -0.00257449 1e-05
0.00461546 -0.00270197 1e-05
0.00469509 -0.00282968 1e-05
0.00477296 -0.00295498 1e-05
0.00479959 -0.00299797 1e-05
0.00482619 -0.00304099 1e-05
0.00485276 -0.00308401 1e-05
0.00487933 -0.00312705 1e-05
0.00490609 -0.0031704 1e-05
0.00496673 -0.00326865 1e-05
0.00502723 -0.00336699 1e-05
0.00508757 -0.00346542 1e-05
0.00514778 -0.00356393 1e-05
0.00520744 -0.00366161 1e-05
0.00526047 -0.00374851 1e-05
0.00531347 -0.00383544 1e-05
0.00536643 -0.0039224 1e-05
0.00541941 -0.00400934 1e-05
0.00547262 -0.00409654 1e-05
0.00551559 -0.00416685 1e-05
0.00555853 -0.00423719 1e-05
0.00560143 -0.00430755 1e-05
0.00564431 -0.00437791 1e-05
0.00568713 -0.00444811 1e-05
0.00575842 -0.00456488 1e-05
0.00582975 -0.00468163 1e-05
0.00590112 -0.00479834 1e-05
0.00597264 -0.00491497 1e-05
0.00604356 -0.00503017 1e-05
0.00607979 -0.00508879 1e-05
0.00611603 -0.0051474 1e-05
0.00615227 -0.00520601 1e-05
0.00618854 -0.0052646 1e-05
0.00622492 -0.00532326 1e-05
0.00630372 -0.00545009 1e-05
0.00638271 -0.0055768 1e-05
0.0064619 -0.00570339 1e-05
0.00654136 -0.00582981 1e-05
0.00661893 -0.00595242 1e-05
0.00666278 -0.00602127 1e-05
0.00670668 -0.00609009 1e-05
0.00675063 -0.00615888 1e-05
0.00679467 -0.00622762 1e-05
0.00683909 -0.00629671 1e-05
0.00691103 -0.00640822 1e-05
0.00698322 -0.00651958 1e-05
0.00705567 -0.00663076 1e-05
0.00712841 -0.00674175 1e-05
0.00719878 -0.00684832 1e-05
0.00726938 -0.00695446 1e-05
0.0073402 -0.00706045 1e-05
0.00741125 -0.0071663 1e-05
0.00748261 -0.00727194 1e-05
0.00755549 -0.00737908 1e-05
0.00760102 -0.00744554 1e-05
0.00764667 -0.0075119 1e-05
0.00769246 -0.00757818 1e-05
0.00773838 -0.00764437 1e-05
0.00778313 -0.00770854 1e-05
0.00790091 -0.00787655 1e-05
0.00801946 -0.00804402 1e-05
0.00813878 -0.00821093 1e-05
0.0082591 -0.00837713 1e-05
0.00837203 -0.00853107 1e-05
0.00837959 -0.00854123 1e-05
0.00838715 -0.00855139 1e-05
0.00839471 -0.00856155 1e-05
0.00840228 -0.0085717 1e-05
0.00840987 -0.00858188 1e-05
0.008521 -0.00873077 1e-05
0.00863295 -0.00887903 1e-05
0.00874575 -0.00902665 1e-05
0.00885942 -0.00917361 1e-05
0.00896551 -0.0093089 1e-05
0.00902992 -0.00938998 1e-05
0.0090946 -0.00947086 1e-05
0.00915954 -0.00955152 1e-05
0.00922478 -0.00963194 1e-05
0.00929217 -0.00971437 1e-05
0.00934646 -0.00978024 1e-05
0.00940094 -0.00984595 1e-05
0.00945562 -0.0099115 1e-05
0.0095105 -0.00997688 1e-05
0.0095636 -0.0100397 1e-05
[...]
POINT_DATA 12278
 FIELD attributes 1
U 3 12278 float
9.72339 	0.381311 	0 9.77871 	0.305049 	0 9.83405 	0.228765 	0 9.8894 	0.152465 	0 9.94476 	0.0761532 	0 10 	0 	0
10.0671 	0.375483 	0 10.0537 	0.300386 	0 10.0403 	0.225271 	0 10.0268 	0.150141 	0 10.0134 	0.0750008 	0 10 	0 	0
10.0364 	0.141572 	0 10.0291 	0.113304 	0 10.0218 	0.085089 	0 10.0145 	0.0569263 	0 10.0071 	0.0288163 	0 10 	0 	0
10.0137 	0.111519 	0 10.011 	0.089215 	0 10.0082 	0.0669107 	0 10.0055 	0.0446061 	0 10.0027 	0.0223012 	0 10 	0 	0
10.0097 	0.0196534 	0 10.0078 	0.0157227 	0 10.0058 	0.011792 	0 10.0039 	0.00786134 	0 10.0019 	0.00393066 	0 10 	0 	0
10.0102 	-0.0372875 	0 10.0082 	-0.02983 	0 10.0061 	-0.0223725 	0 10.0041 	-0.014915 	0 10.002 	-0.00745741 	0 10 	0 	0
10.0174 	-0.148997 	0 10.0139 	-0.119197 	0 10.0105 	-0.0893968 	0 10.007 	-0.0595954 	0 10.0035 	-0.0297933 	0 10 	0 	0
10.0362 	-0.265901 	0 10.029 	-0.212721 	0 10.0217 	-0.159534 	0 10.0145 	-0.106342 	0 10.0072 	-0.053146 	0 10 	0 	0
10.0563 	-0.387167 	0 10.045 	-0.309734 	0 10.0338 	-0.23228 	0 10.0225 	-0.15481 	0 10.0112 	-0.0773282 	0 10 	0 	0
8.30133 	-0.114495 	0 8.4287 	-0.091596 	0 8.55659 	-0.0686962 	0 8.68498 	-0.0457957 	0 8.81385 	-0.0228949 	0 8.94315 	0 	0
9.72339 	0.381311 	0 9.5415 	0.555241 	0 9.39671 	0.66365 	0 9.26203 	0.754271 	0 9.2183 	0.780385 	0 8.95344 	1.27614 	0 8.70578 	1.91036 	0 8.48173 	2.72184 	0 8.46724 	2.67123 	0 8.47252 	2.45986 	0 8.50117 	2.35314 	0 8.52498 	2.2443 	0 8.51221 	2.16311 	0 8.42487 	2.14738 	0 8.30214 	2.12559 	0 8.30117 	1.9821 	0 8.28715 	1.83798 	0 8.21181 	1.72569 	0 8.035 	1.67507 	0 7.86306 	1.62575 	0 7.68323 	1.56759 	0 7.50177 	1.50875 	0 7.42793 	1.45839 	0 7.36148 	1.40771 	0 7.27865 	1.34671 	0 7.22249 	1.32376 	0 7.16614 	1.3007 	0 7.10958 	1.27753 	0 7.07928 	1.2544 	0 7.05291 	1.23121 	0 6.97394 	1.13838 	0 6.88841 	1.05226 	0 6.79883 	0.980328 	0 6.71191 	0.932082 	0 6.6228 	0.883658 	0 6.55089 	0.833774 	0 6.49228 	0.787587 	0 6.44246 	0.743855 	0 6.3887 	0.69909 	0 6.31694 	0.642266 	0 6.31477 	0.640171 	0 6.3132 	0.638347 	0 6.31172 	0.63656 	0 6.31022 	0.634771 	0 6.30868 	0.632932 	0 6.27132 	0.597062 	0 6.23151 	0.560864 	0 6.18921 	0.524334 	0 6.1444 	0.487465 	0 6.10943 	0.456255 	0 6.07602 	0.420973 	0 6.0457 	0.390999 	0 6.017 	0.364555 	0 5.99442 	0.339605 	0 5.97315 	0.315201 	0 5.95245 	0.289068 	0 5.92971 	0.262726 	0 5.91347 	0.241665 	0 5.90339 	0.222662 	0 5.89181 	0.203596 	0 5.87916 	0.183529 	0 5.86497 	0.163363 	0 5.85625 	0.1438 	0 5.85335 	0.127412 	0 5.84918 	0.110998 	0 5.84295 	0.0943639 	0 5.83548 	0.0776884 	0 5.83339 	0.0589871 	0 5.83628 	0.0431145 	0 5.83798 	0.0272425 	0 5.83715 	0.0119458 	0 5.83532 	-0.0034202 	0 5.83918 	-0.0225199 	0 5.84729 	-0.0400099 	0 5.85421 	-0.0574456 	0 5.85857 	-0.0735112 	0 5.86181 	-0.0895509 	0 5.87117 	-0.110938 	0 5.88463 	-0.132473 	0 5.8966 	-0.153938 	0 5.90645 	-0.173303 	0 5.91502 	-0.192598 	0 5.92934 	-0.218056 	0 5.94822 	-0.247009 	0 5.96521 	-0.275822 	0 5.98115 	-0.302052 	0 5.99544 	-0.328132 	0 6.01447 	-0.359746 	0 6.03857 	-0.400906 	0 6.06017 	-0.441823 	0 6.08251 	-0.480283 	0 6.1047 	-0.520899 	0 6.13 	-0.567551 	0 6.15448 	-0.619625 	0 6.1786 	-0.679431 	0 6.20597 	-0.738414 	0 6.23731 	-0.811799 	0 6.26478 	-0.884648 	0 6.28842 	-0.956959 	0 6.30853 	-1.02967 	0 6.30856 	-1.02976 	0 6.30859 	-1.02987 	0 6.30861 	-1.02997 	0 6.30864 	-1.03008 	0 6.30867 	-1.03019 	0 6.33243 	-1.12732 	0 6.35095 	-1.22235 	0 6.36434 	-1.31531 	0 6.37509 	-1.41395 	0 6.38835 	-1.53809 	0 6.40615 	-1.66382 	0 6.41769 	-1.78746 	0 6.40558 	-1.92995 	2.61896e-20 6.36919 	-2.0789 	5.36869e-20 6.31904 	-2.23366 	8.11877e-20 6.31081 	-2.28417 	2.32683e-20 6.29862 	-2.33155 	5.70345e-21 6.28223 	-2.37562 	3.11626e-20 6.26529 	-2.41943 	5.72435e-20 6.25094 	-2.45515 	7.91431e-20 6.22455 	-2.55094 	1.7886e-19 6.19622 	-2.64617 	2.82733e-19 6.16596 	-2.74082 	3.90736e-19 6.11983 	-2.82191 	2.74162e-19 6.06332 	-2.90219 	6.24511e-20 5.98336 	-3.02185 	4.92327e-20 5.89821 	-3.13854 	3.61584e-20 5.80135 	-3.23638 	8.54045e-21 5.70009 	-3.33227 	-1.80778e-20 5.62499 	-3.39899 	-3.62631e-20 5.61589 	-3.40825 	-3.60562e-20 5.60676 	-3.4175 	-3.58344e-20 5.59755 	-3.4261 	-3.69795e-20 5.58821 	-3.43302 	-4.17626e-20 5.57873 	-3.44001 	-4.6591e-20 5.45885 	-3.53621 	-2.83233e-20 5.33364 	-3.63045 	-9.48285e-21 5.20761 	-3.70742 	1.09427e-22 5.08138 	-3.76628 	-2.2353e-22 4.93217 	-3.83172 	5.72748e-23 4.93197 	-3.83183 	3.27755e-23 4.93177 	-3.83194 	8.27594e-24 4.93159 	-3.83202 	1.45285e-23 4.93142 	-3.83208 	3.64683e-23 4.93125 	-3.83213 	5.84135e-23 4.80549 	-3.8815 	1.1116e-21 4.67564 	-3.92926 	2.4695e-21 4.54867 	-3.96577 	4.19791e-21 4.43099 	-3.98288 	6.32386e-21 4.33563 	-3.99525 	8.19518e-21 4.30536 	-4.00289 	1.33311e-20 4.27487 	-4.01046 	1.85049e-20 4.24962 	-4.01217 	9.204e-21 4.2245 	-4.01353 	-8.25092e-22 4.19827 	-4.01488 	-1.12226e-20 4.1244 	-4.0222 	-6.36425e-20 4.04935 	-4.02899 	-1.15694e-19 3.97327 	-4.03511 	-1.65916e-19 3.90905 	-4.02957 	-1.01618e-19 3.8502 	-4.02419 	-4.30515e-20 3.77269 	-4.02634 	4.13796e-21 3.69527 	-4.0256 	4.19297e-20 3.62344 	-4.01349 	3.41365e-20 3.55053 	-4.00092 	2.66138e-20 3.46856 	-3.98644 	1.85915e-20 3.46517 	-3.98602 	1.92284e-20 3.46177 	-3.98559 	1.98655e-20 3.45837 	-3.98517 	2.05027e-20 3.45516 	-3.98443 	2.10375e-20 3.45204 	-3.98358 	2.153e-20 3.38392 	-3.97159 	1.41177e-20 3.31373 	-3.95743 	7.40915e-21 3.24233 	-3.94258 	6.95272e-22 3.17055 	-3.91551 	6.17703e-21 3.10291 	-3.88875 	1.23606e-20 3.06086 	-3.87875 	3.47132e-20 3.01851 	-3.86737 	5.05993e-20 2.97695 	-3.84843 	2.33604e-20 2.93498 	-3.82927 	-3.82171e-21 2.88983 	-3.8086 	-3.27226e-20 2.87166 	-3.80203 	-3.88423e-20 2.85341 	-3.79541 	-4.49642e-20 2.83507 	-3.78874 	-5.10884e-20 2.81683 	-3.77965 	-5.72981e-20 2.79886 	-3.77011 	-6.34261e-20 2.74546 	-3.74906 	-1.07153e-19 2.69123 	-3.72751 	-1.51001e-19 2.63644 	-3.69688 	-1.46182e-19 2.58202 	-3.65951 	-8.81739e-20 2.5295 	-3.62341 	-3.26936e-20 2.5126 	-3.61451 	2.02201e-21 2.49565 	-3.6054 	3.51363e-20 2.47981 	-3.59303 	2.98906e-20 2.46389 	-3.58061 	2.468e-20 2.4475 	-3.56782 	1.93696e-20 2.41693 	-3.54872 	5.65208e-20 2.3861 	-3.52943 	9.35925e-20 2.35502 	-3.50994 	1.30582e-19 2.325 	-3.48542 	1.03466e-19 2.29556 	-3.46095 	7.22853e-20 2.25865 	-3.43529 	4.24506e-20 2.22129 	-3.40929 	1.25836e-20 2.18674 	-3.37646 	-2.87415e-21 2.15195 	-3.34328 	-1.80717e-20 2.11484 	-3.30798 	-3.41681e-20 2.11111 	-3.30511 	-3.17304e-20 2.10737 	-3.30223 	-2.92956e-20 2.10363 	-3.29935 	-2.68636e-20 2.10011 	-3.2959 	-3.39558e-20 2.0966 	-3.29244 	-4.13471e-20 2.05988 	-3.26017 	-1.64777e-19 2.02414 	-3.22585 	-2.56762e-19 1.98909 	-3.18975 	-2.99662e-19 1.95686 	-3.14887 	-1.93323e-19 1.92509 	-3.10865 	-8.89872e-20 1.91649 	-3.09898 	-7.79063e-20 1.90788 	-3.08929 	-6.68211e-20 1.90055 	-3.07846 	-5.65592e-20 1.89351 	-3.06736 	-4.64876e-20 1.88643 	-3.05619 	-3.63403e-20 1.86449 	-3.0308 	-1.17905e-20 1.84243 	-3.00531 	1.27807e-20 1.82083 	-2.97915 	2.9971e-20 1.80179 	-2.95017 	1.21307e-20 1.78289 	-2.92142 	-5.54564e-21 1.7695 	-2.90246 	-2.11591e-20 1.75607 	-2.88348 	-3.67609e-20 1.74483 	-2.8632 	-1.81223e-20 1.73453 	-2.8424 	1.47035e-20 1.72423 	-2.82157 	4.76367e-20 1.7119 	-2.80438 	1.2135e-20 1.69954 	-2.78717 	-2.33162e-20 1.68782 	-2.76947 	-3.49467e-20 1.67774 	-2.75062 	1.29473e-20 1.6677 	-2.73183 	6.07095e-20 1.65436 	-2.70763 	1.97506e-19 1.64105 	-2.68345 	3.34242e-19 1.63013 	-2.6585 	2.96378e-19 1.62097 	-2.63307 	1.33629e-19 1.61205 	-2.60803 	-2.78159e-20 1.60424 	-2.59468 	-5.73506e-20 1.59644 	-2.58133 	-8.68933e-20 1.58945 	-2.56763 	-8.97498e-20 1.58357 	-2.55348 	-5.62612e-20 1.57772 	-2.53933 	-2.27462e-20 1.56772 	-2.5148 	-2.46061e-20 1.55783 	-2.49037 	-2.65058e-20 1.54988 	-2.46582 	-1.93e-20 1.54444 	-2.44112 	-4.59171e-22 1.53936 	-2.4173 	1.78008e-20 1.53272 	-2.40282 	2.97635e-20 1.52611 	-2.38838 	4.17215e-20 1.5208 	-2.3737 	4.57543e-20 1.51645 	-2.35889 	4.41341e-20 1.51213 	-2.34404 	4.24839e-20 1.50688 	-2.32428 	2.55915e-20 1.50177 	-2.30464 	8.67345e-21 1.49773 	-2.28521 	-3.12508e-21 1.49638 	-2.26615 	-1.11133e-21 1.49527 	-2.24797 	8.2317e-22 1.48831 	-2.22748 	7.61672e-20 1.48145 	-2.20708 	1.51738e-19 1.47719 	-2.18684 	1.25667e-19 1.47385 	-2.16676 	6.77455e-20 1.47063 	-2.1465 	8.99956e-21 1.46943 	-2.13593 	-2.34408e-20 1.46828 	-2.12542 	-5.58375e-20 1.46739 	-2.11507 	-8.21989e-20 1.46892 	-2.10616 	-3.65814e-20 1.47049 	-2.09757 	7.88333e-21 1.46335 	-2.06736 	4.60635e-21 1.45653 	-2.03742 	1.31159e-21 1.45577 	-2.01085 	-2.35177e-20 1.45633 	-1.98514 	-5.17977e-20 1.45891 	-1.96215 	-7.49948e-20 1.45845 	-1.96023 	-6.87786e-20 1.45798 	-1.9583 	-6.26124e-20 1.45794 	-1.95658 	-6.72672e-20 1.45789 	-1.95486 	-7.19198e-20 1.45784 	-1.95314 	-7.65823e-20 1.45596 	-1.92817 	-2.0984e-19 1.45445 	-1.90351 	-3.42362e-19 1.45368 	-1.87942 	-4.47153e-19 1.45793 	-1.85916 	-1.91403e-19 1.4623 	-1.84077 	4.71762e-20 1.46016 	-1.82591 	1.11064e-19 1.45814 	-1.81114 	1.74763e-19 1.45905 	-1.79849 	1.42151e-19 1.4601 	-1.78595 	1.0964e-19 1.4613 	-1.77316 	7.63148e-20 1.46223 	-1.76355 	6.73513e-20 1.46324 	-1.75401 	5.841e-20 1.46433 	-1.74454 	4.94911e-20 1.46695 	-1.73632 	5.15753e-20 1.46963 	-1.72852 	5.40998e-20 1.46912 	-1.70525 	2.94073e-20 1.46896 	-1.68227 	4.65291e-21 1.47189 	-1.66171 	2.03321e-20 1.47647 	-1.64223 	4.54208e-20 1.48241 	-1.62512 	6.86528e-20 1.4824 	-1.6211 	6.75486e-20 1.48248 	-1.61715 	6.77094e-20 1.48306 	-1.61357 	7.51736e-20 1.48366 	-1.61001 	8.2636e-20 1.48427 	-1.60641 	9.01843e-20 1.48699 	-1.59062 	1.39709e-19 1.48997 	-1.57503 	1.89111e-19 1.49322 	-1.55964 	2.38386e-19 1.49842 	-1.5461 	1.68551e-19 1.50384 	-1.53388 	8.20419e-20 1.5055 	-1.51444 	1.55204e-19 1.508 	-1.49572 	2.03189e-19 1.51261 	-1.47894 	1.6144e-19 1.51757 	-1.46242 	1.2022e-19 1.52326 	-1.44497 	7.65474e-20 1.5233 	-1.44486 	7.61505e-20 1.52334 	-1.44475 	7.57536e-20 1.52338 	-1.44464 	7.53568e-20 1.52342 	-1.44454 	7.58846e-20 1.52347 	-1.44445 	7.68167e-20 1.52786 	-1.42741 	1.27228e-19 1.53267 	-1.41065 	1.75276e-19 1.53786 	-1.39416 	2.22933e-19 1.54464 	-1.37945 	1.84363e-19 1.55174 	-1.36652 	1.17235e-19 1.55508 	-1.34891 	2.03265e-19 1.55931 	-1.33221 	2.38944e-19 1.56496 	-1.31706 	1.74197e-19 1.57094 	-1.30215 	1.09666e-19 1.57728 	-1.2886 	3.78879e-20 1.5775 	-1.28766 	3.76494e-20 1.57775 	-1.28676 	3.68628e-20 1.57806 	-1.28592 	3.53849e-20 1.57836 	-1.28509 	3.39066e-20 1.57867 	-1.28425 	3.24203e-20 1.58391 	-1.27025 	-1.32475e-20 1.58945 	-1.25644 	-5.88355e-20 1.59529 	-1.24284 	-1.04341e-19 1.60202 	-1.23045 	-8.93675e-20 1.6091 	-1.21968 	-2.98778e-20 1.61356 	-1.20416 	-7.52643e-20 1.61833 	-1.18885 	-1.21065e-19 1.62442 	-1.17548 	-1.03279e-19 1.6317 	-1.16281 	-6.09349e-20 1.63973 	-1.15143 	3.30382e-22 1.64201 	-1.14465 	2.85712e-20 1.6446 	-1.13837 	2.80606e-20 1.64744 	-1.13246 	7.06624e-21 1.65035 	-1.12658 	-1.38781e-20 1.65346 	-1.12046 	-3.58081e-20 1.65712 	-1.11358 	-6.79576e-20 1.66088 	-1.10676 	-9.99938e-20 1.66473 	-1.09999 	-1.31916e-19 1.6688 	-1.09365 	-1.31454e-19 1.67307 	-1.08813 	-7.98831e-20 1.67822 	-1.07439 	-1.11921e-19 1.68424 	-1.06112 	-1.36354e-19 1.69158 	-1.04873 	-1.45675e-19 1.69977 	-1.03812 	-1.35344e-19 1.70787 	-1.02815 	-1.25355e-19 1.71365 	-1.01464 	-2.75659e-19 1.71993 	-1.00195 	-3.49373e-19 1.72682 	-0.990507 	-2.95307e-19 1.73397 	-0.979225 	-2.41748e-19 1.74226 	-0.969139 	-1.16127e-19 1.74434 	-0.964855 	-8.30136e-20 1.74656 	-0.961016 	-8.52079e-20 1.74884 	-0.957309 	-9.69273e-20 1.75115 	-0.953619 	-1.086e-19 1.75359 	-0.949789 	-1.2072e-19 1.75849 	-0.942382 	-1.24353e-19 1.7635 	-0.935043 	-1.27958e-19 1.76864 	-0.927772 	-1.31535e-19 1.77392 	-0.920792 	-1.29709e-19 1.77929 	-0.914989 	-1.05166e-19 1.78535 	-0.903057 	-1.32778e-19 1.79239 	-0.891692 	-1.44946e-19 1.80034 	-0.880838 	-1.43717e-19 1.80866 	-0.871778 	-1.0292e-19 1.81695 	-0.863246 	-6.08946e-20 1.82357 	-0.851554 	-1.64857e-19 1.83045 	-0.840037 	-2.66226e-19 1.83761 	-0.830343 	-2.24917e-19 1.84582 	-0.821231 	-1.27946e-19 1.85451 	-0.812784 	4.52177e-23 1.8611 	-0.802279 	1.42997e-22 1.86785 	-0.793399 	1.08533e-22 1.87478 	-0.784659 	7.00968e-23 1.88191 	-0.776019 	3.12353e-23 1.89025 	-0.7663 	-1.34713e-23 1.89066 	-0.765841 	7.85848e-22 1.89108 	-0.765382 	1.58459e-21 1.8915 	-0.764923 	2.38275e-21 1.89192 	-0.764465 	3.18034e-21 1.89233 	-0.764096 	4.68892e-22 1.89981 	-0.754636 	-2.5603e-20 1.9076 	-0.745352 	-4.74692e-20 1.91562 	-0.73618 	-6.91569e-20 1.92386 	-0.727137 	-8.98421e-20 1.93176 	-0.720149 	-3.11571e-20 1.93866 	-0.710193 	-2.10869e-20 1.94622 	-0.700672 	-1.38442e-20 1.95461 	-0.691688 	-1.0332e-20 1.96278 	-0.684423 	-1.59443e-20 1.97092 	-0.677555 	-2.241e-20 1.97824 	-0.667849 	5.39823e-20 1.98578 	-0.658244 	1.30487e-19 1.99321 	-0.650159 	1.32361e-19 2.00152 	-0.643213 	6.57231e-20 2.00986 	-0.63647 	1.62651e-22 2.01758 	-0.627018 	9.65122e-23 2.02511 	-0.618649 	-1.12568e-20 2.03254 	-0.611108 	-3.11018e-20 2.04014 	-0.603646 	-5.0923e-20 2.04861 	-0.597003 	-6.39894e-20 2.05548 	-0.58934 	-1.06325e-19 2.06197 	-0.582864 	-1.09863e-19 2.0686 	-0.576446 	-1.13459e-19 2.07537 	-0.570083 	-1.17115e-19 2.08329 	-0.562845 	-1.21378e-19 2.08409 	-0.562144 	-1.22624e-19 2.0849 	-0.561444 	-1.23871e-19 2.0857 	-0.560745 	-1.25116e-19 2.08651 	-0.560046 	-1.26361e-19 2.08724 	-0.559479 	-1.2214e-19 2.09471 	-0.552175 	-9.42319e-20 2.1024 	-0.545018 	-6.49895e-20 2.11027 	-0.537929 	-3.5785e-20 2.11832 	-0.53091 	-6.61858e-21 2.12558 	-0.525426 	1.79202e-22 2.13274 	-0.517661 	6.7487e-20 2.14056 	-0.510677 	8.66082e-20 2.14858 	-0.503785 	1.03744e-19 2.15623 	-0.497714 	8.42762e-20 2.16324 	-0.492796 	1.48485e-20 2.17063 	-0.485274 	-5.50913e-20 2.17825 	-0.477898 	-1.18988e-19 2.18631 	-0.471263 	-1.35002e-19 2.19323 	-0.466398 	-6.72705e-20 2.2002 	-0.461618 	-7.22597e-23 2.20779 	-0.454338 	-3.93613e-23 2.21556 	-0.447118 	-6.63505e-24 2.22267 	-0.441257 	0 2.22951 	-0.43654 	0 2.23642 	-0.431897 	0 2.24417 	-0.424859 	0 2.25184 	-0.418146 	0 2.25834 	-0.412912 	0 2.26504 	-0.408135 	-1.0104e-20 2.27184 	-0.40363 	-2.51268e-20 2.27973 	-0.396832 	-6.19174e-21 2.28664 	-0.3912 	-6.37379e-21 2.29314 	-0.38615 	-1.58394e-20 2.29976 	-0.381163 	-2.66794e-20 2.30643 	-0.376796 	-6.64225e-20 2.31414 	-0.370487 	-2.85161e-20 2.32049 	-0.365587 	-3.03049e-20 2.32696 	-0.36072 	-3.20654e-20 2.33354 	-0.355886 	-3.37979e-20 2.34014 	-0.351368 	-4.6452e-20 2.34635 	-0.346529 	-3.69437e-20 2.35194 	-0.342334 	-3.83872e-20 2.35761 	-0.338163 	-3.98094e-20 2.36338 	-0.334016 	-4.12105e-20 2.37019 	-0.329221 	-4.28152e-20 2.37074 	-0.328845 	-4.26902e-20 2.37129 	-0.32847 	-4.25653e-20 2.37185 	-0.328094 	-4.24406e-20 2.3724 	-0.327718 	-4.23161e-20 2.37289 	-0.3274 	-4.25037e-20 2.37905 	-0.32281 	-4.93114e-20 2.38531 	-0.318275 	-5.38587e-20 2.39169 	-0.313767 	-5.8329e-20 2.39817 	-0.309288 	-6.27228e-20 2.4038 	-0.305564 	-3.89513e-20 2.41013 	-0.300848 	-7.52395e-20 2.41629 	-0.296489 	-8.73713e-20 2.42256 	-0.292155 	-9.94442e-20 2.42894 	-0.287846 	-1.11459e-19 2.43357 	-0.284862 	-7.12784e-20 2.44015 	-0.280078 	-1.1864e-19 2.44619 	-0.275892 	-1.21166e-19 2.45233 	-0.271729 	-1.23645e-19 2.45821 	-0.267827 	-1.18989e-19 2.46219 	-0.265264 	-7.53339e-20 2.4688 	-0.260648 	-1.17863e-19 2.47497 	-0.256443 	-1.28075e-19 2.48097 	-0.252449 	-1.22468e-19 2.4859 	-0.24919 	-9.48012e-20 2.48963 	-0.246732 	-4.31995e-20 2.49622 	-0.24232 	4.3158e-20 2.50261 	-0.2381 	1.03965e-19 2.50845 	-0.234272 	1.09459e-19 2.51242 	-0.231585 	5.03794e-20 2.51591 	-0.229231 	-2.66868e-20 2.52245 	-0.225018 	-1.75836e-20 2.5291 	-0.220824 	-8.49027e-21 2.53461 	-0.217241 	8.66914e-21 2.53779 	-0.214975 	2.59575e-20 2.54102 	-0.212721 	4.32207e-20 2.5475 	-0.208703 	-4.33237e-20 2.55408 	-0.204703 	-1.29881e-19 2.55907 	-0.201483 	-1.41228e-19 2.56199 	-0.199317 	-7.10671e-20 2.56496 	-0.197162 	-1.00446e-21 2.57136 	-0.193336 	-9.12761e-23 2.57786 	-0.189525 	8.0112e-22 2.58237 	-0.186641 	-1.56557e-20 2.58502 	-0.184573 	-4.94028e-20 2.58773 	-0.182515 	-8.31249e-20 2.59404 	-0.178876 	-4.76695e-20 2.60045 	-0.17525 	-1.22299e-20 2.60452 	-0.172675 	-8.54673e-21 2.60691 	-0.170703 	-2.59303e-20 2.60935 	-0.16874 	-4.32983e-20 2.61557 	-0.165283 	-2.59876e-20 2.62187 	-0.161842 	-8.72173e-21 2.62548 	-0.159565 	-9.46583e-21 2.62767 	-0.157669 	-2.60537e-20 2.62983 	-0.155799 	-4.33792e-20 2.63594 	-0.15252 	-1.64887e-19 2.64159 	-0.149467 	-2.61723e-19 2.64503 	-0.147309 	-2.57034e-19 2.6473 	-0.145431 	-1.64748e-19 2.6492 	-0.143651 	-4.33596e-20 2.65519 	-0.140545 	-2.59816e-20 2.66019 	-0.137839 	-8.62112e-21 2.66348 	-0.135796 	8.70894e-21 2.66583 	-0.133951 	2.1312e-20 2.66746 	-0.132259 	3.0254e-20 2.67333 	-0.129322 	9.13225e-20 2.67772 	-0.126926 	1.18671e-19 2.68083 	-0.124994 	1.16998e-19 2.68327 	-0.123193 	9.2114e-20 2.68465 	-0.121587 	3.16773e-20 2.69039 	-0.118813 	2.32352e-20 2.69419 	-0.116692 	1.48093e-20 2.69714 	-0.114869 	6.38847e-21 2.69967 	-0.113121 	0 2.70079 	-0.1116 	0 2.7064 	-0.108984 	0 2.70964 	-0.107107 	1.47244e-20 2.71242 	-0.105389 	3.25547e-20 2.71505 	-0.103702 	5.03699e-20 2.71591 	-0.102262 	6.81117e-20 2.72139 	-0.0998001 	1.90109e-19 2.7241 	-0.0981387 	1.93598e-19 2.72672 	-0.0965213 	1.91072e-19 2.72938 	-0.0949072 	1.88595e-19 2.73005 	-0.0935409 	7.02176e-20 2.73519 	-0.0912792 	5.32033e-20 2.7376 	-0.0897565 	3.62421e-20 2.74006 	-0.0882365 	1.92727e-20 2.74256 	-0.0867194 	2.29515e-21 2.74324 	-0.0854045 	1.46966e-20 2.74792 	-0.0833595 	-4.3461e-24 2.75018 	-0.081931 	-2.98921e-23 2.75248 	-0.0805049 	-5.54279e-23 2.75481 	-0.0790813 	-8.09536e-23 2.7555 	-0.077822 	6.38852e-21 2.75976 	-0.0759719 	-5.08021e-20 2.76187 	-0.0746341 	-4.95033e-20 2.76401 	-0.0732983 	-4.82319e-20 2.76619 	-0.0719646 	-4.6988e-20 2.76688 	-0.070764 	-5.64333e-21 2.77075 	-0.0690893 	8.55987e-23 2.77271 	-0.0678385 	6.04922e-23 2.7747 	-0.0665895 	3.5376e-23 2.77673 	-0.0653422 	1.025e-23 2.77741 	-0.0642023 	0 2.78091 	-0.0626855 	1.11918e-20 2.78273 	-0.0615182 	3.75154e-20 2.78457 	-0.0603523 	6.38302e-20 2.78645 	-0.0591879 	9.01363e-20 2.78713 	-0.0581099 	1.075e-19 2.79029 	-0.0567354 	1.73097e-19 2.79197 	-0.0556478 	1.72018e-19 2.79368 	-0.0545616 	1.70968e-19 2.79542 	-0.0534767 	1.69945e-19 2.79607 	-0.052461 	1.02489e-19 2.79893 	-0.0512146 	8.75825e-20 2.80048 	-0.0502034 	5.31486e-20 2.80205 	-0.0491933 	1.87093e-20 2.80365 	-0.0481843 	-1.57354e-20 2.80429 	-0.0472308 	-4.66903e-20 2.80686 	-0.0461 	-9.02063e-20 2.80828 	-0.0451617 	-8.89983e-20 2.80972 	-0.0442243 	-8.78241e-20 2.8112 	-0.0432878 	-8.66837e-20 2.8118 	-0.0423956 	-3.70514e-20 2.81412 	-0.0413694 	-4.95327e-20 2.81542 	-0.0405004 	-3.17117e-20 2.81674 	-0.0396322 	-1.39086e-20 2.81809 	-0.0387648 	3.87664e-21 2.81866 	-0.0379329 	4.31043e-20 2.82074 	-0.0370012 	4.98649e-20 2.82193 	-0.0361982 	6.73361e-20 2.82313 	-0.0353959 	8.47991e-20 2.82436 	-0.0345941 	1.02254e-19 2.8249 	-0.0338209 	1.22069e-19 2.82677 	-0.0329749 	1.46222e-19 2.82784 	-0.0322346 	1.37e-19 2.82894 	-0.0314947 	1.27798e-19 2.83006 	-0.0307554 	1.18617e-19 2.83054 	-0.0300391 	8.16909e-20 2.83223 	-0.0292709 	5.80662e-20 2.8332 	-0.0285899 	3.23178e-20 2.83419 	-0.0279093 	6.56753e-21 2.83521 	-0.0272291 	-1.91845e-20 2.83564 	-0.0265676 	-4.10478e-20 2.83717 	-0.0258702 	-5.61496e-20 2.83804 	-0.0252453 	-3.83748e-20 2.83893 	-0.0246207 	-2.06261e-20 2.83985 	-0.0239965 	-2.9034e-21 2.84023 	-0.0233875 	4.84799e-20 2.8416 	-0.0227547 	1.02286e-19 2.84239 	-0.0221827 	1.09966e-19 2.84319 	-0.021611 	1.17688e-19 2.84401 	-0.0210396 	1.25454e-19 2.84433 	-0.0204809 	8.86198e-20 2.84558 	-0.019907 	7.18038e-20 2.84628 	-0.0193849 	6.32602e-20 2.847 	-0.018863 	5.47124e-20 2.84773 	-0.0183413 	4.61606e-20 2.84799 	-0.0178304 	3.76113e-20 2.84913 	-0.0173104 	1.44387e-20 2.84975 	-0.0168352 	1.47873e-20 2.85039 	-0.0163601 	1.51133e-20 2.85104 	-0.0158853 	1.54168e-20 2.85123 	-0.0154195 	4.14767e-20 2.85228 	-0.014949 	3.