# vtk DataFile Version 2.0
track0
ASCII
DATASET POLYDATA
POINTS 12278 float
-0.0205 0.001 1e-05
-0.02052 0.000999216 1e-05
-0.02054 0.000998592 1e-05
-0.02056 0.000998126 1e-05
-0.02058 0.000997818 1e-05
-0.0206 0.000997665 1e-05
-0.0205 0.00367778 1e-05
-0.02052 0.00367703 1e-05
-0.02054 0.00367643 1e-05
-0.02056 0.00367599 1e-05
-0.02058 0.00367569 1e-05
-0.0206 0.00367554 1e-05
-0.0205 0.00635556 1e-05
-0.02052 0.00635527 1e-05
-0.02054 0.00635505 1e-05
-0.02056 0.00635488 1e-05
-0.02058 0.00635476 1e-05
-0.0206 0.00635471 1e-05
-0.0205 0.00903333 1e-05
-0.02052 0.00903311 1e-05
-0.02054 0.00903293 1e-05
-0.02056 0.0090328 1e-05
-0.02058 0.00903271 1e-05
-0.0206 0.00903266 1e-05
-0.0205 0.0117111 1e-05
-0.02052 0.0117111 1e-05
-0.02054 0.011711 1e-05
-0.02056 0.011711 1e-05
-0.02058 0.011711 1e-05
-0.0206 0.011711 1e-05
-0.0205 0.0143889 1e-05
-0.02052 0.014389 1e-05
-0.02054 0.014389 1e-05
-0.02056 0.0143891 1e-05
-0.02058 0.0143891 1e-05
-0.0206 0.0143891 1e-05
-0.0205 0.0170667 1e-05
-0.02052 0.017067 1e-05
-0.02054 0.0170672 1e-05
-0.02056 0.0170674 1e-05
-0.02058 0.0170675 1e-05
-0.0206 0.0170676 1e-05
-0.0205 0.0197444 1e-05
-0.02052 0.019745 1e-05
-0.02054 0.0197454 1e-05
-0.02056 0.0197457 1e-05
-0.02058 0.0197459 1e-05
-0.0206 0.019746 1e-05
-0.0205 0.0224222 1e-05
-0.02052 0.022423 1e-05
-0.02054 0.0224236 1e-05
-0.02056 0.0224241 1e-05
-0.02058 0.0224244 1e-05
-0.0206 0.0224245 1e-05
-0.0205 0.0251 1e-05
-0.02052 0.0251003 1e-05
-0.02054 0.0251005 1e-05
-0.02056 0.0251007 1e-05
-0.02058 0.0251008 1e-05
-0.0206 0.0251008 1e-05
-0.0205 0.001 1e-05
-0.0203632 0.00100536 1e-05
-0.0202266 0.00101331 1e-05
-0.0200901 0.00102296 1e-05
-0.0200427 0.00102682 1e-05
-0.0198376 0.00104418 1e-05
-0.0196338 0.00107322 1e-05
-0.0194327 0.00111734 1e-05
-0.0192368 0.00118024 1e-05
-0.0190172 0.00124951 1e-05
-0.0189002 0.00128348 1e-05
-0.0187827 0.00131598 1e-05
-0.0186649 0.001347 1e-05
-0.0185469 0.001377 1e-05
-0.0183807 0.00141936 1e-05
-0.0182041 0.00146458 1e-05
-0.0180267 0.00150692 1e-05
-0.0178487 0.0015464 1e-05
-0.0176703 0.00158389 1e-05
-0.0174976 0.0016199 1e-05
-0.0172846 0.00166394 1e-05
-0.0170715 0.00170741 1e-05
-0.0168583 0.00175029 1e-05
-0.0166449 0.00179219 1e-05
-0.0163945 0.00184007 1e-05
-0.0163234 0.00185324 1e-05
-0.0162522 0.00186628 1e-05
-0.016181 0.00187921 1e-05
-0.0161097 0.00189201 1e-05
-0.0160387 0.0019046 1e-05
-0.0157586 0.0019535 1e-05
-0.0154779 0.0019993 1e-05
-0.0151968 0.00204224 1e-05
-0.0149154 0.00208282 1e-05
-0.0146381 0.00212133 1e-05
-0.0143838 0.00215526 1e-05
-0.0141293 0.00218765 1e-05
-0.0138746 0.00221855 1e-05
-0.0136198 0.00224797 1e-05
-0.0132934 0.00228368 1e-05
-0.0132791 0.00228514 1e-05
-0.0132647 0.00228659 1e-05
-0.0132504 0.00228805 1e-05
-0.013236 0.00228949 1e-05
-0.0132213 0.00229098 1e-05
-0.0129775 0.00231543 1e-05
-0.0127336 0.00233865 1e-05
-0.0124897 0.00236061 1e-05
-0.0122456 0.00238129 1e-05
-0.0120025 0.00240057 1e-05
-0.0117547 0.00241908 1e-05
-0.0115067 0.00243626 1e-05
-0.0112587 0.0024523 1e-05
-0.0110106 0.00246733 1e-05
-0.0107632 0.00248135 1e-05
-0.0105252 0.00249391 1e-05
-0.0102872 0.00250547 1e-05
-0.0100491 0.00251601 1e-05
-0.00981105 0.00252575 1e-05
-0.00957337 0.00253471 1e-05
-0.00934491 0.00254261 1e-05
-0.00911643 0.00254974 1e-05
-0.00888792 0.00255611 1e-05
-0.0086594 0.00256172 1e-05
-0.00843108 0.0025667 1e-05
-0.00821175 0.00257086 1e-05
-0.00799241 0.00257441 1e-05
-0.00777306 0.00257733 1e-05
-0.0075537 0.00257955 1e-05
-0.00733443 0.00258118 1e-05
-0.00712387 0.00258216 1e-05
-0.0069133 0.0025826 1e-05
-0.00670273 0.00258248 1e-05
-0.00649216 0.00258167 1e-05
-0.0062816 0.00258024 1e-05
-0.00607944 0.00257826 1e-05
-0.0058773 0.00257573 1e-05
-0.00567516 0.00257265 1e-05
-0.00547303 0.00256883 1e-05
-0.00527083 0.00256429 1e-05
-0.00507675 0.00255923 1e-05
-0.00488269 0.00255354 1e-05
-0.00468865 0.00254723 1e-05
-0.00449464 0.00254011 1e-05
-0.00430044 0.00253205 1e-05
-0.00411412 0.00252344 1e-05
-0.00392784 0.00251405 1e-05
-0.00374159 0.00250386 1e-05
-0.0035554 0.00249274 1e-05
-0.00336883 0.00248036 1e-05
-0.00318995 0.00246733 1e-05
-0.00301115 0.00245322 1e-05
-0.00283245 0.00243799 1e-05
-0.00265386 0.00242147 1e-05
-0.00247443 0.00240341 1e-05
-0.0023027 0.00238454 1e-05
-0.00213114 0.00236414 1e-05
-0.00195982 0.00234186 1e-05
-0.00178875 0.00231772 1e-05
-0.00161577 0.00229141 1e-05
-0.00161524 0.00229133 1e-05
-0.0016147 0.00229124 1e-05
-0.00161416 0.00229115 1e-05
-0.00161363 0.00229106 1e-05
-0.00161309 0.00229098 1e-05
-0.00144876 0.00226413 1e-05
-0.00128482 0.00223493 1e-05
-0.00112131 0.00220346 1e-05
-0.000958242 0.00216976 1e-05
-0.000791418 0.00213277 1e-05
-0.000633135 0.00209468 1e-05
-0.000475556 0.00205377 1e-05
-0.000318718 0.00201011 1e-05
-0.000162831 0.00196317 1e-05
0 0.00191004 1e-05
3.76392e-05 0.00189674 1e-05
7.51769e-05 0.00188316 1e-05
0.000112614 0.0018693 1e-05
0.000149953 0.00185518 1e-05
0.000180452 0.0018434 1e-05
0.000250039 0.00181606 1e-05
0.000319219 0.00178771 1e-05
0.000387976 0.00175835 1e-05
0.000456297 0.00172798 1e-05
0.000528387 0.00169475 1e-05
0.000634886 0.0016438 1e-05
0.000740279 0.00159059 1e-05
0.000844512 0.00153515 1e-05
0.000947624 0.00147765 1e-05
0.00102111 0.0014347 1e-05
0.00102906 0.0014299 1e-05
0.00103701 0.00142507 1e-05
0.00104495 0.00142024 1e-05
0.00105287 0.00141539 1e-05
0.00106088 0.00141047 1e-05
0.00116821 0.00134431 1e-05
0.00127404 0.00127579 1e-05
0.00137828 0.00120487 1e-05
0.001481 0.00113176 1e-05
0.00159752 0.00104543 1e-05
0.0015976 0.00104537 1e-05
0.00159768 0.00104531 1e-05
0.00159776 0.00104525 1e-05
0.00159784 0.00104518 1e-05
0.00159792 0.00104512 1e-05
0.00169278 0.000971424 1e-05
0.00178623 0.000895952 1e-05
0.0018782 0.000818674 1e-05
0.00196874 0.000739736 1e-05
0.00203923 0.000676377 1e-05
0.00205905 0.000658112 1e-05
0.00207879 0.00063976 1e-05
0.00209844 0.000621321 1e-05
0.00211804 0.00060282 1e-05
0.00213833 0.000583555 1e-05
0.00219173 0.000532504 1e-05
0.00224462 0.000480931 1e-05
0.002297 0.000428827 1e-05
0.00234883 0.000376188 1e-05
0.00239533 0.00032826 1e-05
0.00245293 0.000268049 1e-05
0.0025099 0.000207244 1e-05
0.00256625 0.000145859 1e-05
0.00262209 8.40122e-05 1e-05
0.00268334 1.50077e-05 1e-05
0.00268595 1.20062e-05 1e-05
0.00268856 9.00341e-06 1e-05
0.00269117 5.99941e-06 1e-05
0.00269378 2.99419e-06 1e-05
0.00269637 0 1e-05
0.00276026 -7.37374e-05 1e-05
0.00282353 -0.000148007 1e-05
0.00288616 -0.000222818 1e-05
0.00294812 -0.00029818 1e-05
0.00300518 -0.000368657 1e-05
0.00305066 -0.000425672 1e-05
0.00309583 -0.000482931 1e-05
0.0031407 -0.00054043 1e-05
0.00318532 -0.000598123 1e-05
0.00323259 -0.000659799 1e-05
0.00325084 -0.000683859 1e-05
0.00326904 -0.00070796 1e-05
0.00328719 -0.000732102 1e-05
0.00330528 -0.000756285 1e-05
0.00332301 -0.000780095 1e-05
0.00339113 -0.000871883 1e-05
0.00345864 -0.000964114 1e-05
0.00352553 -0.0010568 1e-05
0.00359187 -0.00114988 1e-05
0.00365469 -0.00123896 1e-05
0.00368097 -0.00127664 1e-05
0.00370718 -0.00131436 1e-05
0.00373332 -0.00135214 1e-05
0.0037594 -0.00138995 1e-05
0.00378611 -0.00142879 1e-05
0.00383022 -0.00149313 1e-05
0.00387411 -0.00155761 1e-05
0.00391777 -0.00162225 1e-05
0.00396121 -0.00168704 1e-05
0.00400347 -0.00175044 1e-05
0.00407156 -0.00185319 1e-05
0.00413924 -0.00195621 1e-05
0.00420648 -0.00205951 1e-05
0.00427344 -0.002163 1e-05
0.00434393 -0.00227262 1e-05
0.00435002 -0.00228216 1e-05
0.00435611 -0.0022917 1e-05
0.00436219 -0.00230124 1e-05
0.00436827 -0.00231078 1e-05
0.00437433 -0.0023203 1e-05
0.00445508 -0.00244725 1e-05
0.00453537 -0.00257449 1e-05
0.00461527 -0.00270197 1e-05
0.00469481 -0.00282969 1e-05
0.00477256 -0.00295497 1e-05
0.00479926 -0.00299816 1e-05
0.00482594 -0.00304136 1e-05
0.0048526 -0.00308458 1e-05
0.00487924 -0.00312781 1e-05
0.00490609 -0.00317137 1e-05
0.00496652 -0.00326942 1e-05
0.0050268 -0.00336756 1e-05
0.00508692 -0.0034658 1e-05
0.00514691 -0.00356411 1e-05
0.00520634 -0.00366159 1e-05
0.0052596 -0.00374901 1e-05
0.00531281 -0.00383646 1e-05
0.00536598 -0.00392393 1e-05
0.00541918 -0.00401139 1e-05
0.00547262 -0.00409914 1e-05
0.00551518 -0.00416893 1e-05
0.00555771 -0.00423874 1e-05
0.00560021 -0.00430857 1e-05
0.00564269 -0.00437841 1e-05
0.00568509 -0.00444808 1e-05
0.00575678 -0.00456577 1e-05
0.00582852 -0.00468344 1e-05
0.0059003 -0.00480108 1e-05
0.00597222 -0.00491864 1e-05
0.00604356 -0.00503478 1e-05
0.00607913 -0.00509247 1e-05
0.00611471 -0.00515015 1e-05
0.00615029 -0.00520782 1e-05
0.0061859 -0.00526548 1e-05
0.00622161 -0.0053232 1e-05
0.00630107 -0.00545142 1e-05
0.00638073 -0.00557953 1e-05
0.00646058 -0.00570751 1e-05
0.00654071 -0.00583531 1e-05
0.00661893 -0.00595926 1e-05
0.00666179 -0.00602673 1e-05
0.0067047 -0.00609417 1e-05
0.00674766 -0.00616158 1e-05
0.0067907 -0.00622894 1e-05
0.0068341 -0.00629663 1e-05
0.00690703 -0.00641002 1e-05
0.00698023 -0.00652323 1e-05
0.00705369 -0.00663628 1e-05
0.00712745 -0.00674913 1e-05
0.00719878 -0.00685742 1e-05
0.00726798 -0.00696172 1e-05
0.0073374 -0.00706588 1e-05
0.00740703 -0.0071699 1e-05
0.00747696 -0.00727372 1e-05
0.00754835 -0.00737898 1e-05
0.00759531 -0.00744773 1e-05
0.0076424 -0.00751638 1e-05
0.00768963 -0.00758495 1e-05
0.007737 -0.00765341 1e-05
0.00778313 -0.00771972 1e-05
0.00790091 -0.00788813 1e-05
0.00801946 -0.00805599 1e-05
0.00813879 -0.00822329 1e-05
0.00825912 -0.00838988 1e-05
0.00837203 -0.00854411 1e-05
0.00837762 -0.00855164 1e-05
0.0083832 -0.00855917 1e-05
0.00838879 -0.00856669 1e-05
0.00839438 -0.00857421 1e-05
0.00839998 -0.00858175 1e-05
0.00851309 -0.00873378 1e-05
0.00862705 -0.00888518 1e-05
0.0087419 -0.0090359 1e-05
0.00885765 -0.00918594 1e-05
0.00896551 -0.00932379 1e-05
0.00902741 -0.00940187 1e-05
0.00908955 -0.00947974 1e-05
0.00915194 -0.00955743 1e-05
0.00921461 -0.00963488 1e-05
0.00927927 -0.00971421 1e-05
0.00933613 -0.00978344 1e-05
0.00939322 -0.00985249 1e-05
0.00945052 -0.00992136 1e-05
0.00950804 -0.00999004 1e-05
0.0095636 -0.0100559 1e-05
[...]
POINT_DATA 12278
 FIELD attributes 2
p 1 12278 float
177043 177125 177198 177261 177315 177360
108977 108995 109011 109025 109038 109048
87783.6 87793.2 87802.5 87811.7 87820.7 87829.1
79966.1 79972.4 79978.6 79984.7 79990.8 79996.8
77175.4 77184.6 77193.8 77203 77212.3 77221.5
77592.9 77606.5 77620.1 77633.7 77647.2 77660.7
81126.3 81138.7 81151 81163.1 81175 81186.7
90952.9 90972.6 90991.7 91010 91027.6 91044.4
117385 117418 117448 117476 117502 117526
215504 215314 215122 214928 214732 214534
177043 173438 169111 164533 162866 158935 155552 152901 144736 134695 129252 123824 119885 119275 118423 112377 106478 102356 101461 100594 99611.8 98629.6 97202.9 95734.5 94018.9 93652.4 93285.4 92917.9 92436.9 91939.2 90019.7 88215.8 86701.7 85914.4 85137.6 84451.8 83786.9 83137.1 82485.2 81651.4 81616.5 81587.5 81559.4 81531.3 81502.5 80969.7 80437.4 79905.7 79374.4 78949.3 78523 78113.8 77716.1 77340.5 76974.5 76624.5 76274.2 75950.4 75648.9 75347.8 75058.2 74768.5 74490 74227.1 73964.4 73710.7 73457 73206.9 72970.6 72734.5 72505.6 72276.6 72046 71826.5 71607.3 71393.5 71180 70961.3 70750.4 70539.6 70332.4 70125.5 69912.4 69699.9 69487.7 69275.8 69064.3 68849 68620.9 68393.3 68160.3 67924.7 67680.6 67427.8 67161.9 66881.7 66568 66255.8 65945.2 65632.1 65630.9 65629.5 65628.1 65626.7 65625.3 65235.2 64850.7 64471.9 64074.9 63596.2 63080.7 62571.1 61871.2 61098.4 60285.6 60035.6 59795.8 59567.1 59339 59152.6 58598.1 58041.4 57482.7 57011.5 56545.3 55941 55338.3 54798.8 54258 53867.3 53810.9 53754.4 53700.8 53654.6 53607.8 53055 52495.1 51976.8 51504.9 50955.9 50955.6 50955.2 50954.9 50954.6 50954.3 50526.7 50091.4 49688.6 49352.5 49083.3 48985.3 48886.9 48816.9 48748.1 48676.5 48487.2 48295.6 48102.1 47957.1 47824.4 47652.4 47484.5 47345.4 47204.3 47045.8 47038.7 47031.7 47024.6 47018.2 47012.2 46907.3 46794.9 46680.1 46566.8 46459.8 46424.4 46387.7 46348.3 46308.1 46264.5 46244.1 46223.5 46202.9 46181.4 46160.1 46134.6 46107.7 46070.6 46028.2 45986.5 45988.9 45990.9 45990.2 45989.3 45988.3 45976.8 45965 45952.7 45937.5 45922.2 45931.8 45940.7 45945 45948.8 45952.3 45951.4 45950.5 45949.7 45948.6 45947.5 45960.8 45974.2 45986.6 45997.1 46007.1 46017.4 46027.5 46037.3 46046.9 46056.7 46068 46079.2 46090.2 46101 46111.8 46130.1 46148.5 46166.9 46185.3 46203.8 46212.2 46220.6 46229.1 46238 46246.9 46269.5 46292.2 46315.5 46339.4 46363.1 46370.3 46377.4 46384.9 46392.9 46401 46424.2 46447.5 46471.7 46497 46521.8 46530.4 46539 46548.4 46558.3 46568.2 46588 46607.9 46628.5 46650.6 46672 46685.4 46699 46714.2 46730 46746.2 46758.1 46769.9 46782 46795 46807.7 46829.5 46851.5 46876.8 46902.9 46928.3 46929.1 46929.9 46930.9 46931.9 46932.9 46954.3 46976 46998 47022.3 47044.9 47054 47063.1 47073.6 47084.1 47095 47105.1 47115.3 47125.5 47136.4 47147 47164.1 47181.3 47200.2 47219.8 47239 47241.1 47243.3 47245.8 47248.3 47250.7 47265.5 47280.4 47295.3 47311.4 47326.7 47339.9 47353.6 47368.4 47383.4 47399.6 47400.2 47400.9 47401.5 47402.2 47402.9 47417.2 47431.9 47446.6 47462.5 47477.7 47489.5 47501.9 47515.2 47528.7 47542.3 47542.5 47542.7 47542.9 47543.1 47543.3 47555.5 47567.8 47580.1 47593.2 47606.1 47616.4 47626.6 47638.3 47650.3 47662.2 47665.8 47669.7 47673.9 47678.1 47682.4 47688.8 47695.1 47701.4 47708 47714.9 47723.7 47732.6 47742.3 47753.2 47763.5 47771.1 47779.2 47788 47796.9 47805.9 47807.7 47809.7 47811.8 47814 47816.2 47821.9 47827.6 47833.4 47839.3 47845.7 47851.9 47858.3 47865.1 47873.2 47880.9 47885.9 47891 47897.1 47903.6 47910.3 47913.6 47917.9 47922.3 47926.6 47931.4 47932 47932.5 47933 47933.6 47934.2 47938.2 47942.3 47946.3 47950.4 47955.4 47957.6 47960.1 47962.9 47966.8 47970.6 47971.6 47972.6 47974.5 47977.2 47979.8 47979.6 47980.1 47980.9 47981.6 47983 47982.1 47981.8 47981.4 47981.1 47980.7 47980.6 47980.6 47980.5 47980.5 47980.5 47979 47977.6 47976.1 47974.7 47973.8 47970.6 47967.9 47965.2 47962.9 47961 47956.5 47952.1 47948.3 47945.1 47942 47936.4 47930.8 47925.7 47921.4 47917 47910.3 47903.6 47897.4 47891.6 47886.1 47878.2 47870.8 47863.4 47856.1 47849.3 47840.5 47832.1 47823.6 47815.1 47806.9 47798.8 47790.9 47782.9 47775 47765.8 47764.4 47763.1 47761.7 47760.3 47759 47748.5 47737.9 47727.4 47716.8 47706.4 47694.5 47683 47671.4 47659.8 47648.4 47635.3 47622.8 47610.2 47597.6 47585.3 47571.2 47557.5 47544 47530.5 47517.1 47502.2 47487.4 47472.9 47458.5 47444.2 47428.4 47412.5 47397.2 47381.9 47366.6 47350 47333.4 47317 47300.9 47284.7 47267.3 47249.9 47232.6 47215.6 47198.6 47180.5 47162.3 47144.2 47126.4 47108.6 47089.7 47070.8 47051.9 47033.3 47014.8 46995.2 46975.6 46956 46936.6 46917.4 46897.2 46877 46856.7 46836.6 46816.6 46795.8 46774.9 46754 46733.2 46712.6 46691.3 46669.8 46648.3 46626.9 46605.6 46583.7 46561.7 46539.7 46517.6 46495.8 46473.4 46450.9 46428.3 46405.7 46383.4 46360.5 46337.4 46314.3 46291.3 46268.4 46245 46221.5 46198 46174.5 46151.1 46127.3 46103.3 46079.3 46055.4 46031.5 46007.3 45982.9 45958.6 45934.2 45910 45885.3 45860.6 45835.8 45811.1 45786.4 45761.4 45736.3 45711.2 45686.1 45661.1 45635.7 45610.3 45584.8 45559.4 45534 45508.3 45482.6 45456.8 45431 45405.3 45379.3 45353.3 45327.2 45301.2 45275.1 45248.9 45222.5 45196.2 45169.9 45143.5 45117 45090.4 45063.8 45037.2 45010.6 44983.8 44956.9 44930.1 44903.2 44876.4 44849.3 44822.2 44795.1 44768 44741 44713.7 44686.4 44659 44631.7 44604.4 44576.9 44549.4 44521.8 44494.3 44466.7 44439 44411.3 44383.5 44355.8 44328.1 44300.1 44272.2 44244.2 44216.3 44188.3 44160.2 44132.1 44104 44075.8 44047.7 44019.4 43991 43962.7 43934.4 43906.1 43877.6 43849.1 43820.6 43792 43763.5 43734.9 43706.2 43677.5 43648.8 43620.1 43591.3 43562.4 43533.5 43504.7 43475.8 43446.8 43417.7 43388.7 43359.7 43330.6 43301.4 43272.2 43243 43213.8 43184.6 43155.2 43125.9 43096.5 43067.1 43037.7 43008.2 42978.6 42949.1 42919.5 42889.9 42860.3 42830.5 42800.8 42771.1 42741.3 42711.5 42681.6 42651.7 42621.8 42591.9 42561.8 42531.8 42501.7 42471.6 42441.5 42411.3 42381.1 42350.9 42320.6 42290.3 42260 42229.5 42199.1 42168.7 42138.3 42107.7 42077.1 42046.5 42015.9 41985.3 41954.5 41923.7 41893 41862.2 41831.4 41800.5 41769.5 41738.5 41707.6 41676.6 41645.5 41614.3 41583.1 41552 41520.8 41489.5 41458.2 41426.8 41395.5 41364.1 41332.6 41301.1 41269.5 41238 41206.4 41174.7 41143 41111.2 41079.5 41047.7 41015.8 40983.9 40952 40920 40888 40855.9 40823.8 40791.7 40759.5 40727.3 40695 40662.7 40630.3 40598 40565.6 40533 40500.5 40467.9 40435.3 40402.7 40370 40337.2 40304.4 40271.6 40238.8 40205.9 40172.9 40139.8 40106.8 40073.8 40040.6 40007.4 39974.1 39940.9 39907.6 39874.2 39840.8 39807.3 39773.8 39740.3 39706.7 39673 39639.3 39605.6 39571.9 39538 39504.1 39470.1 39436.2 39402.2 39368.1 39333.9 39299.8 39265.6 39231.4 39197 39162.6 39128.2 39093.8 39059.3 39024.7 38990 38955.4 38920.7 38886 38851.1 38816.2 38781.3 38746.4 38711.4 38676.3 38641.2 38606 38570.8 38535.6 38500.2 38464.8 38429.4 38393.9 38358.4 38322.8 38287.1 38251.4 38215.7 38180 38144.1 38108.1 38072.2 38036.2 38000.2 37964 37927.8 37891.6 37855.4 37819.1 37782.6 37746.2 37709.7 37673.2 37636.6 37599.9 37563.1 37526.4 37489.6 37452.7 37415.7 37378.7 37341.7 37304.6 37267.5 37230.2 37192.9 37155.6 37118.2 37080.8 37043.3 37005.7 36968 36930.4 36892.7 36854.9 36817 36779.1 36741.2 36703.2 36665.1 36626.9 36588.7 36550.5 36512.2 36473.8 36435.3 36396.8 36358.3 36319.7 36281 36242.3 36203.5 36164.7 36125.8 36086.8 36047.8 36008.7 35969.5 35930.4 35891.1 35851.7 35812.3 35772.9 35733.4 35693.8 35654.2 35614.5 35574.8 35535 35495.1 35455.1 35415.1 35375.1 35335 35294.8 35254.5 35214.2 35173.8 35133.4 35092.9 35052.3 35011.7 34971 34930.3 34889.5 34848.6 34807.6 34766.6 34725.6 34684.4 34643.2 34602 34560.7 34519.3 34477.8 34436.3 34394.7 34353.1 34311.5 34269.6 34227.8 34185.9 34143.9 34102 34059.8 34017.6 33975.4 33933.1 33890.8 33848.3 33805.9 33763.3 33720.7 33678 33635.2 33592.4 33549.5 33506.6 33463.6 33420.5 33377.3 33334.1 33290.8 33247.5 33204 33160.5 33117 33073.3 33029.7 32985.9 32942.1 32898.2 32854.2 32810.2 32766.1 32721.9 32677.7 32633.4 32589 32544.5 32500 32455.4 32410.8 32366.1 32321.3 32276.4 32231.5 32186.5 32141.5 32096.3 32051.1 32005.8 31960.4 31915.1 31869.5 31824 31778.3 31732.6 31686.9 31641 31595.1 31549.1 31503 31457 31410.7 31364.4 31318.1 31271.6 31225.2 31178.6 31132 31085.2 31038.5 30991.7 30944.7 30897.7 30850.6 30803.5 30756.3 30709 30661.6 30614.1 30566.6 30519.1 30471.4 30423.7 30375.8 30328 30280.1 30232 30183.9 30135.7 30087.4 30039.2 29990.7 29942.2 29893.6 29845 29796.4 29747.5 29698.6 29649.7 29600.7 29551.7 29502.4 29453.2 29403.8 29354.4 29305 29255.4 29205.8 29156.1 29106.3 29056.5 29006.5 28956.4 28906.3 28856.2 28806 28755.6 28705.2 28654.7 28604.1 28553.5 28502.7 28451.9 28401 28350 28299 28247.8 28196.6 28145.3 28093.9 28042.6 27990.9 27939.3 27887.6 27835.8 27784 27732 27679.9 27627.8 27575.6 27523.4 27471 27418.5 27366 27313.4 27260.7 27207.9 27155 27102 27049 26996 26942.7 26889.3 26836 26782.5 26729.1 26675.3 26621.6 26567.8 26513.9 26460 26405.9 26351.7 26297.5 26243.2 26188.9 26134.4 26079.8 26025.2 25970.5 25915.8 25860.8 25805.8 25750.8 25695.8 25640.7 25585.3 25530 25474.7 25419.3 25363.9 25308.2 25252.6 25197 25141.4 25085.7 25029.8 24974 24918.3 24862.6 24806.8 24750.9 24695.1 24639.4 24583.8 24528.1 24472.4 24417.1 24362 24306.9 24252.2 24197.5 24142.6 24087.6 24032.6 23977.2 23922.5 23873.8 23825.2 23776.6 23732.8 23683.6 23618.3 23552.8 23487.3 23412.8 23361.6 23331.2 23301.2 23271.4 23257.1 23253 23248.9 23244.7 23240.5 23239 23236.4 23231.1 23225.9 23220.6 23214.9 23187.9 23160.7 23133.3 23105.6 23062 22986.1 22917.1 22848.2 22779.3 22723 22671.9 22615.6 22559.2 22502.9 22440.2 22372.4 22304.4 22236.3 22168.1 22099.7 22028.4 21955.2 21881.9 21808.7 21733.3 21655.1 21575.3 21495.5 21415.7 21334.3 21250 21163.9 21077.7 20991.6 20903.6 20812.6 20719.7 20626.7 20533.7 20438.9 20340.8 20240.6 20140.3 20039.9 19937.6 19831.7 19723.5 19615.2 19506.8 19396.3 19282 19164.9 19047.7 18930.4 18810.6 18686.6 18559.8 18432.9 18305.9 18176.5 18042.4 17904.5 17766.3 17628 17486.1 17339.1 17189.4 17039.6 16889.6 16737.4 16579.6 16415 16250.1 16084.9 15913.4 15735.6 15557.5 15379.3 15201.2 15023.1 14838.5 14639 14438.6 14237.5 14022.3 13799.1 13586 13373.5 13161.5 12960.2 12751.3 12503.8 12254.1 12002.2 11712.9 11412.7 11157.3 10904.9 10655.1 10450.3 10237.8 9921.83 9598.25 9266.05 8833.36 8384.38 8071.56 7773.95 7494.41 7349.31 7198.27 6801.91 6357.44 5839.09 5089.71 4311.43 3779.1 3398.18 3250.98 3316.71 3383.01 3362.34 2777.16 1388.17 0