# vtk DataFile Version 2.0
track0
ASCII
DATASET POLYDATA
POINTS 12278 float
-0.0205 0.001 1e-05
-0.02052 0.000999216 1e-05
-0.02054 0.000998592 1e-05
-0.02056 0.000998126 1e-05
-0.02058 0.000997818 1e-05
-0.0206 0.000997665 1e-05
-0.0205 0.00367778 1e-05
-0.02052 0.00367703 1e-05
-0.02054 0.00367643 1e-05
-0.02056 0.00367599 1e-05
-0.02058 0.00367569 1e-05
-0.0206 0.00367554 1e-05
-0.0205 0.00635556 1e-05
-0.02052 0.00635527 1e-05
-0.02054 0.00635505 1e-05
-0.02056 0.00635488 1e-05
-0.02058 0.00635476 1e-05
-0.0206 0.00635471 1e-05
-0.0205 0.00903333 1e-05
-0.02052 0.00903311 1e-05
-0.02054 0.00903293 1e-05
-0.02056 0.0090328 1e-05
-0.02058 0.00903271 1e-05
-0.0206 0.00903266 1e-05
-0.0205 0.0117111 1e-05
-0.02052 0.0117111 1e-05
-0.02054 0.011711 1e-05
-0.02056 0.011711 1e-05
-0.02058 0.011711 1e-05
-0.0206 0.011711 1e-05
-0.0205 0.0143889 1e-05
-0.02052 0.014389 1e-05
-0.02054 0.014389 1e-05
-0.02056 0.0143891 1e-05
-0.02058 0.0143891 1e-05
-0.0206 0.0143891 1e-05
-0.0205 0.0170667 1e-05
-0.02052 0.017067 1e-05
-0.02054 0.0170672 1e-05
-0.02056 0.0170674 1e-05
-0.02058 0.0170675 1e-05
-0.0206 0.0170676 1e-05
-0.0205 0.0197444 1e-05
-0.02052 0.019745 1e-05
-0.02054 0.0197454 1e-05
-0.02056 0.0197457 1e-05
-0.02058 0.0197459 1e-05
-0.0206 0.019746 1e-05
-0.0205 0.0224222 1e-05
-0.02052 0.022423 1e-05
-0.02054 0.0224236 1e-05
-0.02056 0.0224241 1e-05
-0.02058 0.0224244 1e-05
-0.0206 0.0224245 1e-05
-0.0205 0.0251 1e-05
-0.02052 0.0251003 1e-05
-0.02054 0.0251005 1e-05
-0.02056 0.0251007 1e-05
-0.02058 0.0251008 1e-05
-0.0206 0.0251008 1e-05
-0.0205 0.001 1e-05
-0.0203632 0.00100536 1e-05
-0.0202266 0.00101331 1e-05
-0.0200901 0.00102296 1e-05
-0.0200427 0.00102682 1e-05
-0.0198376 0.00104418 1e-05
-0.0196338 0.00107322 1e-05
-0.0194327 0.00111734 1e-05
-0.0192368 0.00118024 1e-05
-0.0190172 0.00124951 1e-05
-0.0189002 0.00128348 1e-05
-0.0187827 0.00131598 1e-05
-0.0186649 0.001347 1e-05
-0.0185469 0.001377 1e-05
-0.0183807 0.00141936 1e-05
-0.0182041 0.00146458 1e-05
-0.0180267 0.00150692 1e-05
-0.0178487 0.0015464 1e-05
-0.0176703 0.00158389 1e-05
-0.0174976 0.0016199 1e-05
-0.0172846 0.00166394 1e-05
-0.0170715 0.00170741 1e-05
-0.0168583 0.00175029 1e-05
-0.0166449 0.00179219 1e-05
-0.0163945 0.00184007 1e-05
-0.0163234 0.00185324 1e-05
-0.0162522 0.00186628 1e-05
-0.016181 0.00187921 1e-05
-0.0161097 0.00189201 1e-05
-0.0160387 0.0019046 1e-05
-0.0157586 0.0019535 1e-05
-0.0154779 0.0019993 1e-05
-0.0151968 0.00204224 1e-05
-0.0149154 0.00208282 1e-05
-0.0146381 0.00212133 1e-05
-0.0143838 0.00215526 1e-05
-0.0141293 0.00218765 1e-05
-0.0138746 0.00221855 1e-05
-0.0136198 0.00224797 1e-05
-0.0132934 0.00228368 1e-05
-0.0132791 0.00228514 1e-05
-0.0132647 0.00228659 1e-05
-0.0132504 0.00228805 1e-05
-0.013236 0.00228949 1e-05
-0.0132213 0.00229098 1e-05
-0.0129775 0.00231543 1e-05
-0.0127336 0.00233865 1e-05
-0.0124897 0.00236061 1e-05
-0.0122456 0.00238129 1e-05
-0.0120025 0.00240057 1e-05
-0.0117547 0.00241908 1e-05
-0.0115067 0.00243626 1e-05
-0.0112587 0.0024523 1e-05
-0.0110106 0.00246733 1e-05
-0.0107632 0.00248135 1e-05
-0.0105252 0.00249391 1e-05
-0.0102872 0.00250547 1e-05
-0.0100491 0.00251601 1e-05
-0.00981105 0.00252575 1e-05
-0.00957337 0.00253471 1e-05
-0.00934491 0.00254261 1e-05
-0.00911643 0.00254974 1e-05
-0.00888792 0.00255611 1e-05
-0.0086594 0.00256172 1e-05
-0.00843108 0.0025667 1e-05
-0.00821175 0.00257086 1e-05
-0.00799241 0.00257441 1e-05
-0.00777306 0.00257733 1e-05
-0.0075537 0.00257955 1e-05
-0.00733443 0.00258118 1e-05
-0.00712387 0.00258216 1e-05
-0.0069133 0.0025826 1e-05
-0.00670273 0.00258248 1e-05
-0.00649216 0.00258167 1e-05
-0.0062816 0.00258024 1e-05
-0.00607944 0.00257826 1e-05
-0.0058773 0.00257573 1e-05
-0.00567516 0.00257265 1e-05
-0.00547303 0.00256883 1e-05
-0.00527083 0.00256429 1e-05
-0.00507675 0.00255923 1e-05
-0.00488269 0.00255354 1e-05
-0.00468865 0.00254723 1e-05
-0.00449464 0.00254011 1e-05
-0.00430044 0.00253205 1e-05
-0.00411412 0.00252344 1e-05
-0.00392784 0.00251405 1e-05
-0.00374159 0.00250386 1e-05
-0.0035554 0.00249274 1e-05
-0.00336883 0.00248036 1e-05
-0.00318995 0.00246733 1e-05
-0.00301115 0.00245322 1e-05
-0.00283245 0.00243799 1e-05
-0.00265386 0.00242147 1e-05
-0.00247443 0.00240341 1e-05
-0.0023027 0.00238454 1e-05
-0.00213114 0.00236414 1e-05
-0.00195982 0.00234186 1e-05
-0.00178875 0.00231772 1e-05
-0.00161577 0.00229141 1e-05
-0.00161524 0.00229133 1e-05
-0.0016147 0.00229124 1e-05
-0.00161416 0.00229115 1e-05
-0.00161363 0.00229106 1e-05
-0.00161309 0.00229098 1e-05
-0.00144876 0.00226413 1e-05
-0.00128482 0.00223493 1e-05
-0.00112131 0.00220346 1e-05
-0.000958242 0.00216976 1e-05
-0.000791418 0.00213277 1e-05
-0.000633135 0.00209468 1e-05
-0.000475556 0.00205377 1e-05
-0.000318718 0.00201011 1e-05
-0.000162831 0.00196317 1e-05
0 0.00191004 1e-05
3.76392e-05 0.00189674 1e-05
7.51769e-05 0.00188316 1e-05
0.000112614 0.0018693 1e-05
0.000149953 0.00185518 1e-05
0.000180452 0.0018434 1e-05
0.000250039 0.00181606 1e-05
0.000319219 0.00178771 1e-05
0.000387976 0.00175835 1e-05
0.000456297 0.00172798 1e-05
0.000528387 0.00169475 1e-05
0.000634886 0.0016438 1e-05
0.000740279 0.00159059 1e-05
0.000844512 0.00153515 1e-05
0.000947624 0.00147765 1e-05
0.00102111 0.0014347 1e-05
0.00102906 0.0014299 1e-05
0.00103701 0.00142507 1e-05
0.00104495 0.00142024 1e-05
0.00105287 0.00141539 1e-05
0.00106088 0.00141047 1e-05
0.00116821 0.00134431 1e-05
0.00127404 0.00127579 1e-05
0.00137828 0.00120487 1e-05
0.001481 0.00113176 1e-05
0.00159752 0.00104543 1e-05
0.0015976 0.00104537 1e-05
0.00159768 0.00104531 1e-05
0.00159776 0.00104525 1e-05
0.00159784 0.00104518 1e-05
0.00159792 0.00104512 1e-05
0.00169278 0.000971424 1e-05
0.00178623 0.000895952 1e-05
0.0018782 0.000818674 1e-05
0.00196874 0.000739736 1e-05
0.00203923 0.000676377 1e-05
0.00205905 0.000658112 1e-05
0.00207879 0.00063976 1e-05
0.00209844 0.000621321 1e-05
0.00211804 0.00060282 1e-05
0.00213833 0.000583555 1e-05
0.00219173 0.000532504 1e-05
0.00224462 0.000480931 1e-05
0.002297 0.000428827 1e-05
0.00234883 0.000376188 1e-05
0.00239533 0.00032826 1e-05
0.00245293 0.000268049 1e-05
0.0025099 0.000207244 1e-05
0.00256625 0.000145859 1e-05
0.00262209 8.40122e-05 1e-05
0.00268334 1.50077e-05 1e-05
0.00268595 1.20062e-05 1e-05
0.00268856 9.00341e-06 1e-05
0.00269117 5.99941e-06 1e-05
0.00269378 2.99419e-06 1e-05
0.00269637 0 1e-05
0.00276026 -7.37374e-05 1e-05
0.00282353 -0.000148007 1e-05
0.00288616 -0.000222818 1e-05
0.00294812 -0.00029818 1e-05
0.00300518 -0.000368657 1e-05
0.00305066 -0.000425672 1e-05
0.00309583 -0.000482931 1e-05
0.0031407 -0.00054043 1e-05
0.00318532 -0.000598123 1e-05
0.00323259 -0.000659799 1e-05
0.00325084 -0.000683859 1e-05
0.00326904 -0.00070796 1e-05
0.00328719 -0.000732102 1e-05
0.00330528 -0.000756285 1e-05
0.00332301 -0.000780095 1e-05
0.00339113 -0.000871883 1e-05
0.00345864 -0.000964114 1e-05
0.00352553 -0.0010568 1e-05
0.00359187 -0.00114988 1e-05
0.00365469 -0.00123896 1e-05
0.00368097 -0.00127664 1e-05
0.00370718 -0.00131436 1e-05
0.00373332 -0.00135214 1e-05
0.0037594 -0.00138995 1e-05
0.00378611 -0.00142879 1e-05
0.00383022 -0.00149313 1e-05
0.00387411 -0.00155761 1e-05
0.00391777 -0.00162225 1e-05
0.00396121 -0.00168704 1e-05
0.00400347 -0.00175044 1e-05
0.00407156 -0.00185319 1e-05
0.00413924 -0.00195621 1e-05
0.00420648 -0.00205951 1e-05
0.00427344 -0.002163 1e-05
0.00434393 -0.00227262 1e-05
0.00435002 -0.00228216 1e-05
0.00435611 -0.0022917 1e-05
0.00436219 -0.00230124 1e-05
0.00436827 -0.00231078 1e-05
0.00437433 -0.0023203 1e-05
0.00445508 -0.00244725 1e-05
0.00453537 -0.00257449 1e-05
0.00461527 -0.00270197 1e-05
0.00469481 -0.00282969 1e-05
0.00477256 -0.00295497 1e-05
0.00479926 -0.00299816 1e-05
0.00482594 -0.00304136 1e-05
0.0048526 -0.00308458 1e-05
0.00487924 -0.00312781 1e-05
0.00490609 -0.00317137 1e-05
0.00496652 -0.00326942 1e-05
0.0050268 -0.00336756 1e-05
0.00508692 -0.0034658 1e-05
0.00514691 -0.00356411 1e-05
0.00520634 -0.00366159 1e-05
0.0052596 -0.00374901 1e-05
0.00531281 -0.00383646 1e-05
0.00536598 -0.00392393 1e-05
0.00541918 -0.00401139 1e-05
0.00547262 -0.00409914 1e-05
0.00551518 -0.00416893 1e-05
0.00555771 -0.00423874 1e-05
0.00560021 -0.00430857 1e-05
0.00564269 -0.00437841 1e-05
0.00568509 -0.00444808 1e-05
0.00575678 -0.00456577 1e-05
0.00582852 -0.00468344 1e-05
0.0059003 -0.00480108 1e-05
0.00597222 -0.00491864 1e-05
0.00604356 -0.00503478 1e-05
0.00607913 -0.00509247 1e-05
0.00611471 -0.00515015 1e-05
0.00615029 -0.00520782 1e-05
0.0061859 -0.00526548 1e-05
0.00622161 -0.0053232 1e-05
0.00630107 -0.00545142 1e-05
0.00638073 -0.00557953 1e-05
0.00646058 -0.00570751 1e-05
0.00654071 -0.00583531 1e-05
0.00661893 -0.00595926 1e-05
0.00666179 -0.00602673 1e-05
0.0067047 -0.00609417 1e-05
0.00674766 -0.00616158 1e-05
0.0067907 -0.00622894 1e-05
0.0068341 -0.00629663 1e-05
0.00690703 -0.00641002 1e-05
0.00698023 -0.00652323 1e-05
0.00705369 -0.00663628 1e-05
0.00712745 -0.00674913 1e-05
0.00719878 -0.00685742 1e-05
0.00726798 -0.00696172 1e-05
0.0073374 -0.00706588 1e-05
0.00740703 -0.0071699 1e-05
0.00747696 -0.00727372 1e-05
0.00754835 -0.00737898 1e-05
0.00759531 -0.00744773 1e-05
0.0076424 -0.00751638 1e-05
0.00768963 -0.00758495 1e-05
0.007737 -0.00765341 1e-05
0.00778313 -0.00771972 1e-05
0.00790091 -0.00788813 1e-05
0.00801946 -0.00805599 1e-05
0.00813879 -0.00822329 1e-05
0.00825912 -0.00838988 1e-05
0.00837203 -0.00854411 1e-05
0.00837762 -0.00855164 1e-05
0.0083832 -0.00855917 1e-05
0.00838879 -0.00856669 1e-05
0.00839438 -0.00857421 1e-05
0.00839998 -0.00858175 1e-05
0.00851309 -0.00873378 1e-05
0.00862705 -0.00888518 1e-05
0.0087419 -0.0090359 1e-05
0.00885765 -0.00918594 1e-05
0.00896551 -0.00932379 1e-05
0.00902741 -0.00940187 1e-05
0.00908955 -0.00947974 1e-05
0.00915194 -0.00955743 1e-05
0.00921461 -0.00963488 1e-05
0.00927927 -0.00971421 1e-05
0.00933613 -0.00978344 1e-05
0.00939322 -0.00985249 1e-05
0.00945052 -0.00992136 1e-05
0.00950804 -0.00999004 1e-05
0.0095636 -0.0100559 1e-05
[...]
POINT_DATA 12278
 FIELD attributes 1
U 3 12278 float
9.72339 	0.381311 	0 9.77871 	0.305049 	0 9.83405 	0.228765 	0 9.8894 	0.152465 	0 9.94476 	0.0761532 	0 10 	0 	0
10.0671 	0.375482 	0 10.0537 	0.300385 	0 10.0403 	0.22527 	0 10.0268 	0.150141 	0 10.0134 	0.0750006 	0 10 	0 	0
10.0364 	0.14157 	0 10.0291 	0.113303 	0 10.0218 	0.0850879 	0 10.0145 	0.0569256 	0 10.0071 	0.028816 	0 10 	0 	0
10.0137 	0.111516 	0 10.011 	0.0892127 	0 10.0082 	0.066909 	0 10.0055 	0.044605 	0 10.0027 	0.0223006 	0 10 	0 	0
10.0097 	0.0196505 	0 10.0078 	0.0157204 	0 10.0058 	0.0117903 	0 10.0039 	0.00786021 	0 10.0019 	0.0039301 	0 10 	0 	0
10.0102 	-0.0372902 	0 10.0082 	-0.0298322 	0 10.0061 	-0.0223741 	0 10.0041 	-0.014916 	0 10.002 	-0.00745795 	0 10 	0 	0
10.0174 	-0.148999 	0 10.0139 	-0.119199 	0 10.0105 	-0.0893982 	0 10.007 	-0.0595963 	0 10.0035 	-0.0297937 	0 10 	0 	0
10.0362 	-0.265903 	0 10.029 	-0.212722 	0 10.0217 	-0.159535 	0 10.0145 	-0.106343 	0 10.0072 	-0.0531463 	0 10 	0 	0
10.0563 	-0.387168 	0 10.045 	-0.309734 	0 10.0338 	-0.23228 	0 10.0225 	-0.15481 	0 10.0112 	-0.0773283 	0 10 	0 	0
8.30133 	-0.114495 	0 8.4287 	-0.091596 	0 8.55659 	-0.0686962 	0 8.68498 	-0.0457957 	0 8.81385 	-0.0228949 	0 8.94315 	0 	0
9.72339 	0.381311 	0 9.5415 	0.555241 	0 9.39671 	0.66365 	0 9.26203 	0.754271 	0 9.2183 	0.780385 	0 8.95344 	1.27614 	0 8.70578 	1.91036 	0 8.48174 	2.72184 	0 8.46724 	2.67123 	0 8.47252 	2.45986 	0 8.50117 	2.35314 	0 8.52498 	2.2443 	0 8.51221 	2.1631 	0 8.42487 	2.14737 	0 8.30215 	2.12558 	0 8.30118 	1.98209 	0 8.28715 	1.83797 	0 8.21182 	1.72568 	0 8.03501 	1.67507 	0 7.86307 	1.62574 	0 7.68324 	1.56758 	0 7.50178 	1.50874 	0 7.42794 	1.45838 	0 7.36149 	1.4077 	0 7.27865 	1.34669 	0 7.2225 	1.32374 	0 7.16615 	1.30068 	0 7.1096 	1.27752 	0 7.0793 	1.25438 	0 7.05293 	1.23119 	0 6.97396 	1.13837 	0 6.88843 	1.05225 	0 6.79885 	0.980316 	0 6.71193 	0.93207 	0 6.62282 	0.883646 	0 6.55091 	0.833759 	0 6.4923 	0.78757 	0 6.44247 	0.743836 	0 6.38871 	0.699069 	0 6.31696 	0.642259 	0 6.31478 	0.640161 	0 6.31321 	0.638334 	0 6.31173 	0.636545 	0 6.31023 	0.634754 	0 6.30869 	0.632913 	0 6.27132 	0.597047 	0 6.23151 	0.560854 	0 6.18922 	0.524327 	0 6.14441 	0.487463 	0 6.10944 	0.456258 	0 6.07603 	0.420979 	0 6.04571 	0.391009 	0 6.01701 	0.364568 	0 5.99442 	0.339621 	0 5.97315 	0.315222 	0 5.95245 	0.289092 	0 5.92971 	0.262753 	0 5.91346 	0.241698 	0 5.90337 	0.2227 	0 5.89178 	0.20364 	0 5.87913 	0.183578 	0 5.86493 	0.163417 	0 5.85621 	0.14386 	0 5.8533 	0.12748 	0 5.84911 	0.111073 	0 5.84288 	0.0944452 	0 5.83541 	0.0777757 	0 5.83331 	0.0590826 	0 5.83619 	0.0432199 	0 5.83787 	0.0273576 	0 5.83703 	0.0120686 	0 5.8352 	-0.0032911 	0 5.83904 	-0.022379 	0 5.84713 	-0.0398569 	0 5.85405 	-0.0572801 	0 5.85839 	-0.073336 	0 5.86162 	-0.0893661 	0 5.87096 	-0.110742 	0 5.88441 	-0.132261 	0 5.89636 	-0.153709 	0 5.90619 	-0.173061 	0 5.91474 	-0.192344 	0 5.92904 	-0.217791 	0 5.9479 	-0.246723 	0 5.96487 	-0.275515 	0 5.98078 	-0.301728 	0 5.99505 	-0.327791 	0 6.01406 	-0.359396 	0 6.03813 	-0.400528 	0 6.0597 	-0.441416 	0 6.08201 	-0.479853 	0 6.10416 	-0.520429 	0 6.12943 	-0.567052 	0 6.15388 	-0.619129 	0 6.17797 	-0.678896 	0 6.20529 	-0.737813 	0 6.23659 	-0.811153 	0 6.26402 	-0.883959 	0 6.28763 	-0.956227 	0 6.3077 	-1.02896 	0 6.30779 	-1.02924 	0 6.30788 	-1.0296 	0 6.30797 	-1.02996 	0 6.30806 	-1.03032 	0 6.30815 	-1.03069 	0 6.33176 	-1.12752 	0 6.35014 	-1.22227 	0 6.36343 	-1.31496 	0 6.37409 	-1.41333 	0 6.38727 	-1.53711 	0 6.40502 	-1.66278 	0 6.41652 	-1.78637 	0 6.40445 	-1.9287 	2.60931e-20 6.3679 	-2.07759 	5.3478e-20 6.31775 	-2.23227 	8.09761e-20 6.30946 	-2.2831 	2.26354e-20 6.29716 	-2.33078 	4.97518e-21 6.28066 	-2.37512 	3.06138e-20 6.26359 	-2.4192 	5.6883e-20 6.24914 	-2.45509 	7.89123e-20 6.22281 	-2.55051 	1.78356e-19 6.19454 	-2.64537 	2.81929e-19 6.16435 	-2.73965 	3.89605e-19 6.11836 	-2.82042 	2.73317e-19 6.06206 	-2.90038 	6.22691e-20 5.98212 	-3.01998 	4.90377e-20 5.89702 	-3.13669 	3.60193e-20 5.80018 	-3.23449 	8.3852e-21 5.69896 	-3.33035 	-1.82492e-20 5.62279 	-3.39801 	-3.67109e-20 5.61393 	-3.40703 	-3.65087e-20 5.60503 	-3.41603 	-3.62924e-20 5.59606 	-3.42441 	-3.74089e-20 5.58696 	-3.43115 	-4.20705e-20 5.57773 	-3.43795 	-4.67752e-20 5.4579 	-3.53412 	-2.85077e-20 5.33275 	-3.62833 	-9.66723e-21 5.20672 	-3.70543 	2.16369e-23 5.08049 	-3.76413 	-4.23869e-22 4.93053 	-3.83004 	-8.09633e-23 4.93042 	-3.83009 	-4.96188e-23 4.93031 	-3.83014 	-1.82741e-23 4.93021 	-3.83018 	1.77278e-23 4.93011 	-3.8302 	6.02409e-23 4.93002 	-3.83023 	1.02745e-22 4.8041 	-3.87973 	1.02258e-21 4.67407 	-3.92757 	2.38195e-21 4.54695 	-3.96409 	4.11355e-21 4.42909 	-3.98124 	6.24355e-21 4.33364 	-3.99364 	8.11796e-21 4.30369 	-4.0012 	1.3202e-20 4.27353 	-4.0087 	1.8323e-20 4.24855 	-4.0104 	9.11554e-21 4.2237 	-4.01175 	-8.1197e-22 4.19776 	-4.0131 	-1.11004e-20 4.12361 	-4.02047 	-6.37696e-20 4.04827 	-4.02732 	-1.16067e-19 3.97189 	-4.03347 	-1.66476e-19 3.9074 	-4.02795 	-1.01882e-19 3.84833 	-4.02257 	-4.30715e-20 3.77109 	-4.02473 	3.97067e-21 3.69396 	-4.02402 	4.16384e-20 3.62239 	-4.012 	3.38692e-20 3.54976 	-3.99951 	2.63687e-20 3.46812 	-3.98514 	1.83716e-20 3.46444 	-3.98468 	1.90627e-20 3.46075 	-3.98422 	1.97541e-20 3.45706 	-3.98376 	2.04456e-20 3.45358 	-3.98297 	2.10259e-20 3.45019 	-3.98204 	2.15603e-20 3.38214 	-3.97022 	1.40846e-20 3.31194 	-3.95611 	7.37309e-21 3.24053 	-3.9413 	6.5624e-22 3.16874 	-3.9142 	6.21649e-21 3.1011 	-3.88749 	1.24023e-20 3.05921 	-3.87756 	3.46779e-20 3.01701 	-3.86626 	5.04945e-20 2.9756 	-3.84744 	2.33533e-20 2.9338 	-3.82839 	-3.73134e-21 2.88882 	-3.80785 	-3.25251e-20 2.87047 	-3.80123 	-3.87075e-20 2.85204 	-3.79456 	-4.48922e-20 2.83352 	-3.78784 	-5.10792e-20 2.81509 	-3.77868 	-5.73527e-20 2.79694 	-3.76907 	-6.35424e-20 2.74352 	-3.74807 	-1.07289e-19 2.68927 	-3.72658 	-1.51156e-19 2.63447 	-3.69605 	-1.46196e-19 2.58002 	-3.65874 	-8.81591e-20 2.52748 	-3.6227 	-3.26571e-20 2.51065 	-3.61386 	1.9129e-21 2.49377 	-3.60481 	3.48597e-20 2.47799 	-3.59252 	2.96439e-20 2.46214 	-3.58019 	2.4463e-20 2.4458 	-3.56748 	1.91829e-20 2.41513 	-3.54837 	5.64415e-20 2.3842 	-3.52906 	9.36196e-20 2.35301 	-3.50956 	1.30715e-19 2.32289 	-3.48501 	1.0356e-19 2.29335 	-3.46052 	7.22838e-20 2.25642 	-3.43492 	4.24535e-20 2.21904 	-3.40899 	1.25909e-20 2.18447 	-3.37623 	-2.85245e-21 2.14966 	-3.34313 	-1.80507e-20 2.11251 	-3.30789 	-3.41535e-20 2.10876 	-3.30501 	-3.17083e-20 2.105 	-3.30212 	-2.9266e-20 2.10124 	-3.29923 	-2.68266e-20 2.0977 	-3.29578 	-3.39402e-20 2.09418 	-3.29231 	-4.13669e-20 2.05741 	-3.2601 	-1.64862e-19 2.02163 	-3.22583 	-2.56794e-19 1.98652 	-3.18979 	-2.998e-19 1.95424 	-3.14897 	-1.93405e-19 1.92243 	-3.10881 	-8.90293e-20 1.91378 	-3.09911 	-7.78936e-20 1.9051 	-3.08939 	-6.67535e-20 1.89772 	-3.07853 	-5.64421e-20 1.89064 	-3.0674 	-4.63201e-20 1.8835 	-3.05618 	-3.61199e-20 1.86157 	-3.03088 	-1.16082e-20 1.83952 	-3.00548 	1.29252e-20 1.81792 	-2.97941 	3.01767e-20 1.79888 	-2.95052 	1.23937e-20 1.77998 	-2.92186 	-5.22353e-21 1.76647 	-2.90282 	-2.09088e-20 1.75293 	-2.88375 	-3.65818e-20 1.74159 	-2.86337 	-1.77159e-20 1.73119 	-2.84247 	1.53077e-20 1.72078 	-2.82153 	4.84505e-20 1.70852 	-2.80448 	1.33109e-20 1.69623 	-2.78741 	-2.17774e-20 1.68457 	-2.76988 	-3.34393e-20 1.67454 	-2.75118 	1.41584e-20 1.66454 	-2.73254 	6.16228e-20 1.65105 	-2.70817 	1.9963e-19 1.63759 	-2.68383 	3.3758e-19 1.62654 	-2.6587 	2.9885e-19 1.61725 	-2.63308 	1.35143e-19 1.60821 	-2.60784 	-2.72963e-20 1.60051 	-2.59471 	-5.62911e-20 1.59282 	-2.58159 	-8.52928e-20 1.58592 	-2.56812 	-8.82319e-20 1.58011 	-2.5542 	-5.52464e-20 1.57433 	-2.54028 	-2.22377e-20 1.56417 	-2.5155 	-2.4087e-20 1.55412 	-2.49081 	-2.59763e-20 1.54605 	-2.46599 	-1.86018e-20 1.5405 	-2.44101 	4.57886e-22 1.53532 	-2.41693 	1.89298e-20 1.5288 	-2.40276 	3.06552e-20 1.5223 	-2.38861 	4.23761e-20 1.51708 	-2.37424 	4.638e-20 1.51279 	-2.35972 	4.48081e-20 1.50854 	-2.34516 	4.32078e-20 1.50317 	-2.32507 	2.60541e-20 1.49793 	-2.3051 	8.87404e-21 1.4938 	-2.28534 	-3.03715e-21 1.49238 	-2.26594 	-9.88946e-22 1.49123 	-2.24745 	9.77654e-22 1.48437 	-2.22732 	7.48647e-20 1.47762 	-2.20728 	1.48969e-19 1.4734 	-2.18739 	1.23702e-19 1.4701 	-2.16764 	6.67548e-20 1.46691 	-2.14772 	9.01803e-21 1.46565 	-2.13677 	-2.45571e-20 1.46444 	-2.12588 	-5.80858e-20 1.46351 	-2.11518 	-8.50647e-20 1.46508 	-2.10594 	-3.79855e-20 1.46668 	-2.09705 	7.86389e-21 1.45953 	-2.06676 	4.5843e-21 1.4527 	-2.03675 	1.28686e-21 1.45213 	-2.0102 	-2.431e-20 1.45269 	-1.9844 	-5.26272e-20 1.45485 	-1.9612 	-7.66825e-20 1.4545 	-1.95977 	-7.20899e-20 1.45416 	-1.95835 	-6.75122e-20 1.45412 	-1.95707 	-7.09632e-20 1.45409 	-1.95579 	-7.4413e-20 1.45405 	-1.95452 	-7.78683e-20 1.4521 	-1.92898 	-2.14051e-19 1.45053 	-1.90376 	-3.49468e-19 1.44974 	-1.87914 	-4.5494e-19 1.45407 	-1.8584 	-1.94378e-19 1.45851 	-1.83961 	4.82926e-20 1.45647 	-1.82529 	1.09721e-19 1.45452 	-1.81106 	1.71186e-19 1.45541 	-1.79886 	1.39767e-19 1.45641 	-1.78675 	1.08442e-19 1.45756 	-1.77441 	7.63611e-20 1.45853 	-1.76429 	6.69375e-20 1.45958 	-1.75424 	5.75382e-20 1.46073 	-1.74426 	4.81636e-20 1.46349 	-1.73561 	5.03875e-20 1.4663 	-1.7274 	5.3021e-20 1.46583 	-1.70407 	2.83039e-20 1.46572 	-1.68103 	3.52436e-21 1.46885 	-1.66052 	2.14954e-20 1.4731 	-1.64081 	4.66104e-20 1.47907 	-1.62363 	6.98541e-20 1.47907 	-1.62021 	6.89176e-20 1.47914 	-1.61684 	6.90453e-20 1.47964 	-1.61379 	7.5394e-20 1.48015 	-1.61075 	8.17412e-20 1.48067 	-1.60768 	8.81508e-20 1.48348 	-1.59128 	1.39415e-19 1.48657 	-1.57509 	1.90548e-19 1.48994 	-1.55911 	2.41545e-19 1.49534 	-1.54505 	1.68773e-19 1.50097 	-1.5324 	7.95669e-20 1.50264 	-1.51352 	1.50439e-19 1.50511 	-1.49533 	1.97018e-19 1.50961 	-1.479 	1.56489e-19 1.51444 	-1.46292 	1.16459e-19 1.51997 	-1.44596 	7.41114e-20 1.52018 	-1.44536 	7.19204e-20 1.52039 	-1.44476 	6.97304e-20 1.52061 	-1.44416 	6.75414e-20 1.52087 	-1.44362 	7.047e-20 1.52115 	-1.44311 	7.55897e-20 1.52531 	-1.42587 	1.34976e-19 1.53019 	-1.40906 	1.83069e-19 1.53544 	-1.39252 	2.30767e-19 1.54237 	-1.37786 	1.85716e-19 1.54953 	-1.36489 	1.1858e-19 1.55291 	-1.34748 	2.03469e-19 1.5572 	-1.33102 	2.33585e-19 1.56284 	-1.31603 	1.69686e-19 1.5688 	-1.30126 	1.05997e-19 1.57525 	-1.28674 	3.85416e-20 1.57532 	-1.28643 	3.84649e-20 1.57541 	-1.28614 	3.82119e-20 1.57551 	-1.28587 	3.77368e-20 1.5756 	-1.2856 	3.72617e-20 1.5757 	-1.28533 	3.67858e-20 1.58116 	-1.27069 	-1.07503e-20 1.58695 	-1.25626 	-5.82001e-20 1.59306 	-1.24204 	-1.0556e-19 1.60011 	-1.2291 	-8.96267e-20 1.6075 	-1.21788 	-2.78948e-20 1.61204 	-1.20233 	-7.33003e-20 1.6169 	-1.18699 	-1.19017e-19 1.62313 	-1.17369 	-9.73622e-20 1.63025 	-1.16087 	-6.09353e-20 1.63833 	-1.14945 	3.38022e-22 1.64043 	-1.1433 	2.59424e-20 1.64281 	-1.13759 	2.54422e-20 1.64541 	-1.13222 	6.41051e-21 1.64805 	-1.12687 	-1.25799e-20 1.65087 	-1.12132 	-3.23841e-20 1.65483 	-1.11385 	-6.71041e-20 1.6589 	-1.10646 	-1.01692e-19 1.66307 	-1.09912 	-1.36146e-19 1.66749 	-1.09226 	-1.35424e-19 1.67211 	-1.0863 	-7.99013e-20 1.67735 	-1.07253 	-1.11949e-19 1.68326 	-1.05914 	-1.38968e-19 1.69071 	-1.04682 	-1.47011e-19 1.69895 	-1.03618 	-1.36669e-19 1.70709 	-1.02618 	-1.2667e-19 1.71297 	-1.01266 	-2.7701e-19 1.71935 	-1.00005 	-3.38827e-19 1.72631 	-0.988585 	-2.84817e-19 1.73353 	-0.977282 	-2.31318e-19 1.7417 	-0.96709 	-1.16754e-19 1.7435 	-0.963426 	-8.84582e-20 1.74542 	-0.96014 	-9.0389e-20 1.74738 	-0.956964 	-1.00397e-19 1.74936 	-0.953801 	-1.1037e-19 1.75143 	-0.950535 	-1.20671e-19 1.75669 	-0.942552 	-1.24572e-19 1.76208 	-0.934647 	-1.28441e-19 1.7676 	-0.926821 	-1.32278e-19 1.77329 	-0.919315 	-1.30263e-19 1.77907 	-0.913085 	-1.03993e-19 1.7852 	-0.901139 	-1.31623e-19 1.79218 	-0.889679 	-1.46766e-19 1.8002 	-0.878809 	-1.45521e-19 1.80857 	-0.86983 	-1.0238e-19 1.81689 	-0.861282 	-6.03494e-20 1.82359 	-0.849579 	-1.64345e-19 1.83055 	-0.838145 	-2.57791e-19 1.83777 	-0.82844 	-2.16549e-19 1.84591 	-0.819246 	-1.27969e-19 1.85463 	-0.810785 	5.97104e-23 1.86093 	-0.800846 	1.52042e-22 1.86734 	-0.792441 	1.19217e-22 1.87393 	-0.78416 	8.2929e-23 1.88069 	-0.775969 	4.62601e-23 1.88852 	-0.766806 	4.365e-24 1.88937 	-0.765866 	1.63571e-21 1.89023 	-0.764926 	3.26464e-21 1.89108 	-0.763988 	4.89116e-21 1.89194 	-0.763052 	6.51528e-21 1.89277 	-0.7623 	9.87135e-22 1.90021 	-0.752764 	-2.92315e-20 1.90805 	-0.743472 	-5.10664e-20 1.91612 	-0.734291 	-7.27224e-20 1.92439 	-0.72533 	-8.93612e-20 1.93232 	-0.718333 	-3.06661e-20 1.93928 	-0.708372 	-2.05984e-20 1.94683 	-0.698788 	-1.28697e-20 1.95526 	-0.689797 	-9.36735e-21 1.96343 	-0.682612 	-1.54666e-20 1.97159 	-0.675736 	-2.19393e-20 1.97898 	-0.666026 	5.44676e-20 1.98658 	-0.656418 	1.30987e-19 1.99395 	-0.648363 	1.32389e-19 2.00229 	-0.641411 	6.57349e-20 2.01065 	-0.634663 	1.55612e-22 2.01842 	-0.625209 	8.958e-23 2.02597 	-0.616914 	-1.2143e-20 2.03343 	-0.609371 	-3.19823e-20 2.04107 	-0.601907 	-5.17977e-20 2.04949 	-0.595219 	-6.52793e-20 2.05598 	-0.588034 	-1.04877e-19 2.06209 	-0.581957 	-1.08204e-19 2.06832 	-0.57593 	-1.11583e-19 2.07466 	-0.569953 	-1.15014e-19 2.08202 	-0.563203 	-1.18979e-19 2.08329 	-0.562091 	-1.20952e-19 2.08456 	-0.56098 	-1.22923e-19 2.08583 	-0.559872 	-1.24892e-19 2.08711 	-0.558765 	-1.26861e-19 2.08828 	-0.557868 	-1.20188e-19 2.09573 	-0.550519 	-9.30839e-20 2.10346 	-0.543361 	-6.38488e-20 2.11136 	-0.536273 	-3.46517e-20 2.11943 	-0.529253 	-5.49273e-21 2.12665 	-0.523839 	1.79038e-22 2.13386 	-0.516076 	6.7503e-20 2.14168 	-0.509053 	8.91798e-20 2.14972 	-0.502162 	1.06286e-19 2.15734 	-0.496158 	8.35815e-20 2.16435 	-0.49124 	1.41452e-20 2.17179 	-0.48372 	-5.5802e-20 2.17942 	-0.476314 	-1.22102e-19 2.18746 	-0.469742 	-1.35031e-19 2.19437 	-0.464878 	-6.72847e-20 2.20134 	-0.460099 	-6.92586e-23 2.20897 	-0.452822 	-3.6405e-23 2.21677 	-0.445605 	-3.72368e-24 2.22384 	-0.439776 	0 2.23068 	-0.435061 	0 2.23758 	-0.43042 	0 2.24537 	-0.423386 	0 2.25302 	-0.416731 	0 2.25953 	-0.4115 	0 2.26622 	-0.406701 	-9.51641e-21 2.27302 	-0.402199 	-2.4551e-20 2.28094 	-0.395405 	-5.61978e-21 2.28782 	-0.389827 	-6.65848e-21 2.29432 	-0.384782 	-1.61222e-20 2.30095 	-0.379778 	-2.58594e-20 2.30761 	-0.375414 	-6.56235e-20 2.31529 	-0.369157 	-2.90597e-20 2.32165 	-0.364261 	-3.08414e-20 2.32812 	-0.359399 	-3.25949e-20 2.33472 	-0.35457 	-3.43205e-20 2.34131 	-0.350037 	-4.62106e-20 2.34714 	-0.345521 	-3.73593e-20 2.35235 	-0.341602 	-3.87044e-20 2.35765 	-0.337704 	-4.00309e-20 2.36303 	-0.333827 	-4.13389e-20 2.36932 	-0.329385 	-4.28247e-20 2.37028 	-0.328724 	-4.26052e-20 2.37125 	-0.328065 	-4.23862e-20 2.37221 	-0.327406 	-4.21678e-20 2.37318 	-0.326748 	-4.19499e-20 2.37403 	-0.32619 	-4.2279e-20 2.38021 	-0.321585 	-5.07083e-20 2.38647 	-0.317056 	-5.52363e-20 2.39285 	-0.312554 	-5.96874e-20 2.39934 	-0.30808 	-6.40623e-20 2.40491 	-0.3044 	-3.87408e-20 2.41126 	-0.299673 	-7.63294e-20 2.41743 	-0.29532 	-8.84475e-20 2.4237 	-0.290993 	-1.00507e-19 2.43007 	-0.28669 	-1.12508e-19 2.43464 	-0.283747 	-7.08855e-20 2.44125 	-0.278955 	-1.19464e-19 2.44729 	-0.274776 	-1.21978e-19 2.45343 	-0.27062 	-1.24445e-19 2.45926 	-0.266756 	-1.18821e-19 2.46321 	-0.264198 	-7.51604e-20 2.46984 	-0.259591 	-1.177e-19 2.47603 	-0.25538 	-1.29013e-19 2.48203 	-0.251393 	-1.23391e-19 2.4869 	-0.24817 	-9.48176e-20 2.49062 	-0.245717 	-4.32059e-20 2.49721 	-0.241313 	4.31673e-20 2.50364 	-0.23709 	1.05681e-19 2.50947 	-0.23327 	1.11149e-19 2.51338 	-0.230616 	5.05515e-20 2.51685 	-0.228267 	-2.65317e-20 2.5234 	-0.224063 	-1.74292e-20 2.53006 	-0.219878 	-8.33669e-21 2.53554 	-0.216317 	8.66999e-21 2.5387 	-0.214057 	2.59613e-20 2.54191 	-0.21181 	4.32276e-20 2.5484 	-0.207801 	-4.33316e-20 2.55499 	-0.20381 	-1.29903e-19 2.55995 	-0.20061 	-1.40964e-19 2.56285 	-0.198451 	-7.07957e-20 2.56579 	-0.196303 	-7.25056e-22 2.57221 	-0.192486 	1.83738e-22 2.57872 	-0.188684 	1.0718e-21 2.5832 	-0.18582 	-1.53943e-20 2.58583 	-0.183759 	-4.91511e-20 2.58851 	-0.181708 	-8.28832e-20 2.59484 	-0.178079 	-4.74261e-20 2.60126 	-0.174462 	-1.19848e-20 2.60531 	-0.171906 	-8.549e-21 2.60767 	-0.169942 	-2.59353e-20 2.61009 	-0.167986 	-4.33061e-20 2.61631 	-0.164539 	-2.59926e-20 2.62258 	-0.161121 	-8.95262e-21 2.62619 	-0.158852 	-9.69308e-21 2.62838 	-0.156959 	-2.60586e-20 2.63052 	-0.155096 	-4.33868e-20 2.63664 	-0.151827 	-1.64913e-19 2.64225 	-0.148796 	-2.60285e-19 2.64569 	-0.146646 	-2.55619e-19 2.64796 	-0.144772 	-1.64773e-19 2.64984 	-0.143 	-4.33652e-20 2.65584 	-0.139904 	-2.59846e-20 2.66081 	-0.137219 	-8.62203e-21 2.66409 	-0.135184 	8.71059e-21 2.66644 	-0.133342 	2.14097e-20 2.66806 	-0.131659 	3.03515e-20 2.67393 	-0.128732 	9.14274e-20 2.67829 	-0.126354 	1.1815e-19 2.6814 	-0.124431 	1.16485e-19 2.68385 	-0.122634 	9.22141e-20 2.6852 	-0.121037 	3.1767e-20 2.69095 	-0.118273 	2.33223e-20 2.69472 	-0.116169 	1.48942e-20 2.69766 	-0.114354 	6.47079e-21 2.7002 	-0.112611 	0 2.7013 	-0.111098 	0 2.70691 	-0.108493 	0 2.71013 	-0.106631 	1.48792e-20 2.7129 	-0.104921 	3.27095e-20 2.71554 	-0.10324 	5.05253e-20 2.71639 	-0.101808 	6.82672e-20 2.72186 	-0.0993561 	1.90279e-19 2.72455 	-0.0977094 	1.92776e-19 2.72716 	-0.0960998 	1.90263e-19 2.72982 	-0.0944934 	1.87799e-19 2.73049 	-0.0931338 	7.03614e-20 2.73561 	-0.0908872 	5.33432e-20 2.73802 	-0.0893722 	3.63777e-20 2.74047 	-0.0878599 	1.94041e-20 2.74296 	-0.0863504 	2.42246e-21 2.74364 	-0.0850423 	1.45733e-20 2.74831 	-0.0830112 	-4.52471e-24 2.75056 	-0.0815903 	-3.00713e-23 2.75286 	-0.0801718 	-5.56079e-23 2.75519 	-0.0787556 	-8.11343e-23 2.75587 	-0.0775031 	6.33094e-21 2.76012 	-0.075666 	-5.03484e-20 2.76222 	-0.0743355 	-4.90556e-20 2.76436 	-0.073007 	-4.77902e-20 2.76654 	-0.0716806 	-4.6552e-20 2.76723 	-0.0704868 	-5.58921e-21 2.77108 	-0.068824 	8.57677e-23 2.77304 	-0.0675803 	6.06561e-23 2.77503 	-0.0663383 	3.55348e-23 2.77705 	-0.0650981 	1.04039e-23 2.77774 	-0.0639648 	0 2.78123 	-0.0624591 	1.13447e-20 2.78304 	-0.0612985 	3.76695e-20 2.78488 	-0.0601394 	6.39857e-20 2.78676 	-0.0589818 	9.02932e-20 2.78744 	-0.0579102 	1.07754e-19 2.79059 	-0.0565458 	1.72638e-19 2.79227 	-0.0554648 	1.71565e-19 2.79397 	-0.054385 	1.70519e-19 2.79571 	-0.0533065 	1.69501e-19 2.79637 	-0.052297 	1.02823e-19 2.79922 	-0.0510599 	8.76839e-20 2.80076 	-0.0500549 	5.32453e-20 2.80233 	-0.0490509 	1.88013e-20 2.80393 	-0.048048 	-1.56481e-20 2.80458 	-0.0471003 	-4.66519e-20 2.80714 	-0.0459781 	-8.96046e-20 2.80855 	-0.0450455 	-8.84009e-20 2.81 	-0.0441138 	-8.72308e-20 2.81147 	-0.043183 	-8.60943e-20 2.81209 	-0.0422964 	-3.71402e-20 2.81439 	-0.0412779 	-4.92001e-20 2.81569 	-0.0404143 	-3.13792e-20 2.81701 	-0.0395515 	-1.35759e-20 2.81836 	-0.0386894 	4.20956e-21 2.81894 	-0.0378626 	4.31092e-20 2.82101 	-0.036938 	5.00349e-20 2.8222 	-0.0361399 	6.75073e-20 2.8234 	-0.0353424 	8.49715e-20 2.82463 	-0.0345456 	1.02427e-19 2.82518 	-0.0337772 	1.22204e-19 2.82704 	-0.0329375 	1.45794e-19 2.82812 	-0.0322016 	1.36571e-19 2.82921 	-0.0314662 	1.27369e-19 2.83033 	-0.0307314 	1.18188e-19 2.83083 	-0.0300194 	8.17792e-20 2.83251 	-0.0292569 	5.81122e-20 2.83348 	-0.0285799 	3.23612e-20 2.83447 	-0.0279033 	6.60826e-21 2.83549 	-0.0272271 	-1.91465e-20 2.83594 	-0.0265695 	-4.10921e-20 2.83745 	-0.0258772 	-5.55179e-20 2.83833 	-0.0252558 	-3.77412e-20 2.83922 	-0.0246347 	-1.99904e-20 2.84014 	-0.024014 	-2.26548e-21 2.84053 	-0.0234085 	4.83662e-20 2.8419 	-0.0227801 	1.01138e-19 2.84269 	-0.0222112 	1.08817e-19 2.84349 	-0.0216426 	1.16538e-19 2.84431 	-0.0210742 	1.24303e-19 2.84465 	-0.0205185 	8.85473e-20 2.84589 	-0.0199484 	7.19311e-20 2.84659 	-0.0194289 	6.33869e-20 2.84731 	-0.0189096 	5.48387e-20 2.84805 	-0.0183906 	4.62863e-20 2.84832 	-0.0178821 	3.77364e-20 2.84945 	-0.0173654 	1.51748e-20 2.85008 	-0.0168923 	1.55259e-20 2.85072 	-0.0164194 	1.58546e-20 2.85137 	-0.0159467 	1.61608e-20 2.85157 	-0.015483 	4.15229e-20 2.85262 	-0.0150152 	3.99491e-20 2.853