# vtk DataFile Version 2.0
track0
ASCII
DATASET POLYDATA
POINTS 12278 float
-0.0205 0.001 1e-05
-0.02052 0.000999216 1e-05
-0.02054 0.000998592 1e-05
-0.02056 0.000998126 1e-05
-0.02058 0.000997818 1e-05
-0.0206 0.000997665 1e-05
-0.0205 0.00367778 1e-05
-0.02052 0.00367703 1e-05
-0.02054 0.00367643 1e-05
-0.02056 0.00367599 1e-05
-0.02058 0.00367569 1e-05
-0.0206 0.00367554 1e-05
-0.0205 0.00635556 1e-05
-0.02052 0.00635527 1e-05
-0.02054 0.00635505 1e-05
-0.02056 0.00635488 1e-05
-0.02058 0.00635476 1e-05
-0.0206 0.00635471 1e-05
-0.0205 0.00903333 1e-05
-0.02052 0.00903311 1e-05
-0.02054 0.00903293 1e-05
-0.02056 0.0090328 1e-05
-0.02058 0.00903271 1e-05
-0.0206 0.00903266 1e-05
-0.0205 0.0117111 1e-05
-0.02052 0.0117111 1e-05
-0.02054 0.011711 1e-05
-0.02056 0.011711 1e-05
-0.02058 0.011711 1e-05
-0.0206 0.011711 1e-05
-0.0205 0.0143889 1e-05
-0.02052 0.014389 1e-05
-0.02054 0.014389 1e-05
-0.02056 0.0143891 1e-05
-0.02058 0.0143891 1e-05
-0.0206 0.0143891 1e-05
-0.0205 0.0170667 1e-05
-0.02052 0.017067 1e-05
-0.02054 0.0170672 1e-05
-0.02056 0.0170674 1e-05
-0.02058 0.0170675 1e-05
-0.0206 0.0170676 1e-05
-0.0205 0.0197444 1e-05
-0.02052 0.019745 1e-05
-0.02054 0.0197454 1e-05
-0.02056 0.0197457 1e-05
-0.02058 0.0197459 1e-05
-0.0206 0.019746 1e-05
-0.0205 0.0224222 1e-05
-0.02052 0.022423 1e-05
-0.02054 0.0224236 1e-05
-0.02056 0.0224241 1e-05
-0.02058 0.0224244 1e-05
-0.0206 0.0224245 1e-05
-0.0205 0.0251 1e-05
-0.02052 0.0251003 1e-05
-0.02054 0.0251005 1e-05
-0.02056 0.0251007 1e-05
-0.02058 0.0251008 1e-05
-0.0206 0.0251008 1e-05
-0.0205 0.001 1e-05
-0.0203632 0.00100536 1e-05
-0.0202266 0.00101331 1e-05
-0.0200901 0.00102296 1e-05
-0.0200427 0.00102682 1e-05
-0.0198376 0.00104418 1e-05
-0.0196338 0.00107322 1e-05
-0.0194327 0.00111734 1e-05
-0.0192368 0.00118024 1e-05
-0.0190172 0.00124951 1e-05
-0.0189002 0.00128348 1e-05
-0.0187827 0.00131598 1e-05
-0.0186649 0.001347 1e-05
-0.0185469 0.001377 1e-05
-0.0183807 0.00141936 1e-05
-0.0182041 0.00146458 1e-05
-0.0180267 0.00150692 1e-05
-0.0178487 0.0015464 1e-05
-0.0176703 0.00158389 1e-05
-0.0174976 0.00161991 1e-05
-0.0172846 0.00166394 1e-05
-0.0170715 0.00170741 1e-05
-0.0168583 0.00175029 1e-05
-0.0166449 0.00179219 1e-05
-0.0163945 0.00184007 1e-05
-0.0163234 0.00185324 1e-05
-0.0162522 0.00186629 1e-05
-0.016181 0.00187921 1e-05
-0.0161097 0.00189201 1e-05
-0.0160387 0.0019046 1e-05
-0.0157586 0.0019535 1e-05
-0.0154779 0.00199931 1e-05
-0.0151968 0.00204225 1e-05
-0.0149154 0.00208283 1e-05
-0.0146381 0.00212134 1e-05
-0.0143838 0.00215527 1e-05
-0.0141293 0.00218766 1e-05
-0.0138747 0.00221855 1e-05
-0.0136198 0.00224797 1e-05
-0.0132934 0.00228369 1e-05
-0.0132791 0.00228515 1e-05
-0.0132648 0.0022866 1e-05
-0.0132504 0.00228805 1e-05
-0.0132361 0.0022895 1e-05
-0.0132214 0.00229098 1e-05
-0.0129776 0.00231543 1e-05
-0.0127337 0.00233865 1e-05
-0.0124897 0.00236061 1e-05
-0.0122456 0.0023813 1e-05
-0.0120025 0.00240058 1e-05
-0.0117547 0.00241909 1e-05
-0.0115067 0.00243627 1e-05
-0.0112587 0.00245231 1e-05
-0.0110106 0.00246734 1e-05
-0.0107632 0.00248136 1e-05
-0.0105252 0.00249391 1e-05
-0.0102872 0.00250547 1e-05
-0.0100491 0.00251602 1e-05
-0.00981105 0.00252575 1e-05
-0.00957337 0.00253472 1e-05
-0.00934491 0.00254261 1e-05
-0.00911643 0.00254974 1e-05
-0.00888792 0.00255611 1e-05
-0.0086594 0.00256172 1e-05
-0.00843108 0.00256669 1e-05
-0.00821175 0.00257085 1e-05
-0.00799241 0.00257439 1e-05
-0.00777306 0.00257731 1e-05
-0.0075537 0.00257953 1e-05
-0.00733443 0.00258115 1e-05
-0.00712387 0.00258213 1e-05
-0.0069133 0.00258257 1e-05
-0.00670273 0.00258244 1e-05
-0.00649216 0.00258163 1e-05
-0.0062816 0.00258019 1e-05
-0.00607944 0.00257821 1e-05
-0.0058773 0.00257567 1e-05
-0.00567516 0.00257258 1e-05
-0.00547303 0.00256876 1e-05
-0.00527083 0.00256421 1e-05
-0.00507675 0.00255914 1e-05
-0.00488269 0.00255345 1e-05
-0.00468865 0.00254713 1e-05
-0.00449464 0.00253999 1e-05
-0.00430044 0.00253193 1e-05
-0.00411412 0.00252331 1e-05
-0.00392784 0.00251391 1e-05
-0.00374159 0.00250371 1e-05
-0.0035554 0.00249258 1e-05
-0.00336883 0.00248019 1e-05
-0.00318995 0.00246715 1e-05
-0.00301115 0.00245303 1e-05
-0.00283245 0.00243778 1e-05
-0.00265386 0.00242125 1e-05
-0.00247443 0.00240318 1e-05
-0.0023027 0.0023843 1e-05
-0.00213114 0.00236388 1e-05
-0.00195982 0.00234158 1e-05
-0.00178875 0.00231743 1e-05
-0.00161577 0.0022911 1e-05
-0.00161562 0.00229108 1e-05
-0.00161546 0.00229105 1e-05
-0.00161531 0.00229103 1e-05
-0.00161516 0.002291 1e-05
-0.001615 0.00229098 1e-05
-0.00145029 0.00226408 1e-05
-0.00128597 0.00223483 1e-05
-0.00112208 0.00220328 1e-05
-0.000958636 0.0021695 1e-05
-0.000791418 0.00213242 1e-05
-0.000633135 0.00209431 1e-05
-0.000475556 0.00205338 1e-05
-0.000318719 0.0020097 1e-05
-0.000162834 0.00196273 1e-05
0 0.00190958 1e-05
3.73759e-05 0.00189637 1e-05
7.46517e-05 0.00188288 1e-05
0.000111829 0.00186911 1e-05
0.000148908 0.00185509 1e-05
0.00017924 0.00184338 1e-05
0.00024907 0.00181595 1e-05
0.000318489 0.0017875 1e-05
0.000387483 0.00175804 1e-05
0.000456037 0.00172756 1e-05
0.000528387 0.0016942 1e-05
0.000634886 0.00164323 1e-05
0.000740278 0.00159 1e-05
0.00084451 0.00153453 1e-05
0.000947621 0.00147701 1e-05
0.00102002 0.00143469 1e-05
0.00102819 0.00142975 1e-05
0.00103636 0.00142479 1e-05
0.00104451 0.00141982 1e-05
0.00105265 0.00141484 1e-05
0.00106088 0.00140978 1e-05
0.00116821 0.0013436 1e-05
0.00127404 0.00127505 1e-05
0.00137827 0.0012041 1e-05
0.00148099 0.00113097 1e-05
0.00159683 0.00104511 1e-05
0.00159696 0.001045 1e-05
0.0015971 0.00104489 1e-05
0.00159724 0.00104479 1e-05
0.00159738 0.00104468 1e-05
0.00159752 0.00104457 1e-05
0.00169221 0.000970982 1e-05
0.00178551 0.000895625 1e-05
0.00187732 0.000818468 1e-05
0.00196771 0.000739656 1e-05
0.00203812 0.000676368 1e-05
0.00205816 0.000657901 1e-05
0.00207812 0.000639345 1e-05
0.002098 0.000620699 1e-05
0.00211781 0.000601991 1e-05
0.00213833 0.000582501 1e-05
0.00219149 0.00053166 1e-05
0.00224415 0.000480301 1e-05
0.0022963 0.000428417 1e-05
0.00234791 0.000376002 1e-05
0.00239423 0.000328255 1e-05
0.00245205 0.00026782 1e-05
0.00250924 0.000206785 1e-05
0.0025658 0.000145168 1e-05
0.00262185 8.30849e-05 1e-05
0.00268334 1.37948e-05 1e-05
0.00268574 1.10358e-05 1e-05
0.00268814 8.27584e-06 1e-05
0.00269054 5.51481e-06 1e-05
0.00269293 2.75275e-06 1e-05
0.00269532 0 1e-05
0.00275922 -7.37368e-05 1e-05
0.0028225 -0.000148005 1e-05
0.00288514 -0.000222814 1e-05
0.00294711 -0.000298174 1e-05
0.00300418 -0.000368654 1e-05
0.00304986 -0.000425904 1e-05
0.00309524 -0.0004834 1e-05
0.0031403 -0.000541137 1e-05
0.00318511 -0.000599069 1e-05
0.00323259 -0.00066101 1e-05
0.00325066 -0.000684827 1e-05
0.00326868 -0.000708684 1e-05
0.00328664 -0.00073258 1e-05
0.00330455 -0.000756518 1e-05
0.00332212 -0.00078009 1e-05
0.00339026 -0.000871878 1e-05
0.00345781 -0.000964108 1e-05
0.00352472 -0.00105679 1e-05
0.0035911 -0.00114986 1e-05
0.00365396 -0.00123896 1e-05
0.00368039 -0.00127682 1e-05
0.00370674 -0.00131473 1e-05
0.00373302 -0.00135269 1e-05
0.00375925 -0.00139069 1e-05
0.00378611 -0.00142972 1e-05
0.00383011 -0.00149387 1e-05
0.0038739 -0.00155817 1e-05
0.00391747 -0.00162262 1e-05
0.00396081 -0.00168721 1e-05
0.00400299 -0.00175044 1e-05
0.00407118 -0.00185324 1e-05
0.00413895 -0.00195632 1e-05
0.00420629 -0.00205968 1e-05
0.00427335 -0.00216322 1e-05
0.00434393 -0.00227287 1e-05
0.00435 -0.00228236 1e-05
0.00435606 -0.00229185 1e-05
0.00436211 -0.00230134 1e-05
0.00436817 -0.00231083 1e-05
0.0043742 -0.0023203 1e-05
0.00445504 -0.00244725 1e-05
0.00453544 -0.00257449 1e-05
0.00461543 -0.00270197 1e-05
0.00469507 -0.00282968 1e-05
0.00477294 -0.00295498 1e-05
0.00479957 -0.00299798 1e-05
0.00482617 -0.003041 1e-05
0.00485275 -0.00308403 1e-05
0.00487932 -0.00312707 1e-05
0.00490609 -0.00317043 1e-05
0.00496673 -0.00326867 1e-05
0.00502722 -0.003367 1e-05
0.00508757 -0.00346543 1e-05
0.00514777 -0.00356393 1e-05
0.00520743 -0.00366161 1e-05
0.00526047 -0.00374851 1e-05
0.00531347 -0.00383544 1e-05
0.00536642 -0.0039224 1e-05
0.00541941 -0.00400934 1e-05
0.00547262 -0.00409654 1e-05
0.00551559 -0.00416686 1e-05
0.00555853 -0.00423719 1e-05
0.00560143 -0.00430755 1e-05
0.00564432 -0.00437791 1e-05
0.00568714 -0.00444811 1e-05
0.00575842 -0.00456488 1e-05
0.00582975 -0.00468161 1e-05
0.00590113 -0.00479832 1e-05
0.00597264 -0.00491495 1e-05
0.00604356 -0.00503014 1e-05
0.00607979 -0.00508876 1e-05
0.00611604 -0.00514738 1e-05
0.00615229 -0.00520599 1e-05
0.00618857 -0.00526459 1e-05
0.00622495 -0.00532326 1e-05
0.00630374 -0.00545007 1e-05
0.00638273 -0.00557677 1e-05
0.00646191 -0.00570335 1e-05
0.00654137 -0.00582975 1e-05
0.00661893 -0.00595234 1e-05
0.00666279 -0.00602121 1e-05
0.0067067 -0.00609005 1e-05
0.00675067 -0.00615885 1e-05
0.00679472 -0.0062276 1e-05
0.00683915 -0.00629671 1e-05
0.00691107 -0.0064082 1e-05
0.00698325 -0.00651953 1e-05
0.00705569 -0.00663069 1e-05
0.00712842 -0.00674165 1e-05
0.00719878 -0.0068482 1e-05
0.0072694 -0.00695436 1e-05
0.00734024 -0.00706038 1e-05
0.00741131 -0.00716625 1e-05
0.00748269 -0.00727191 1e-05
0.00755559 -0.00737909 1e-05
0.0076011 -0.0074455 1e-05
0.00764673 -0.00751184 1e-05
0.0076925 -0.00757808 1e-05
0.0077384 -0.00764423 1e-05
0.00778313 -0.00770837 1e-05
0.00790091 -0.00787637 1e-05
0.00801946 -0.00804384 1e-05
0.00813878 -0.00821074 1e-05
0.0082591 -0.00837693 1e-05
0.00837203 -0.00853086 1e-05
0.00837962 -0.00854107 1e-05
0.00838721 -0.00855127 1e-05
0.00839481 -0.00856147 1e-05
0.0084024 -0.00857166 1e-05
0.00841003 -0.00858188 1e-05
0.00852112 -0.00873072 1e-05
0.00863305 -0.00887893 1e-05
0.00874581 -0.0090265 1e-05
0.00885944 -0.00917341 1e-05
0.00896551 -0.00930866 1e-05
0.00902996 -0.00938979 1e-05
0.00909468 -0.00947071 1e-05
0.00915966 -0.00955142 1e-05
0.00922495 -0.00963189 1e-05
0.00929239 -0.00971438 1e-05
0.00934663 -0.00978019 1e-05
0.00940107 -0.00984584 1e-05
0.0094557 -0.00991133 1e-05
0.00951054 -0.00997666 1e-05
0.0095636 -0.0100395 1e-05
0.00968415 -0.0101812 1e-05
[...]
POINT_DATA 12278
 FIELD attributes 1
U 3 12278 float
9.72339 	0.381311 	0 9.77871 	0.305049 	0 9.83405 	0.228765 	0 9.8894 	0.152465 	0 9.94476 	0.0761532 	0 10 	0 	0
10.0671 	0.375483 	0 10.0537 	0.300387 	0 10.0403 	0.225271 	0 10.0268 	0.150141 	0 10.0134 	0.0750008 	0 10 	0 	0
10.0364 	0.141572 	0 10.0291 	0.113304 	0 10.0218 	0.085089 	0 10.0145 	0.0569263 	0 10.0071 	0.0288164 	0 10 	0 	0
10.0137 	0.111519 	0 10.011 	0.0892151 	0 10.0082 	0.0669108 	0 10.0055 	0.0446062 	0 10.0027 	0.0223012 	0 10 	0 	0
10.0097 	0.0196536 	0 10.0078 	0.0157228 	0 10.0058 	0.0117921 	0 10.0039 	0.00786141 	0 10.0019 	0.0039307 	0 10 	0 	0
10.0102 	-0.0372873 	0 10.0082 	-0.0298299 	0 10.0061 	-0.0223724 	0 10.0041 	-0.0149149 	0 10.002 	-0.00745737 	0 10 	0 	0
10.0174 	-0.148996 	0 10.0139 	-0.119197 	0 10.0105 	-0.0893967 	0 10.007 	-0.0595953 	0 10.0035 	-0.0297932 	0 10 	0 	0
10.0362 	-0.265901 	0 10.029 	-0.212721 	0 10.0217 	-0.159534 	0 10.0145 	-0.106342 	0 10.0072 	-0.053146 	0 10 	0 	0
10.0563 	-0.387167 	0 10.045 	-0.309734 	0 10.0338 	-0.23228 	0 10.0225 	-0.15481 	0 10.0112 	-0.0773282 	0 10 	0 	0
8.30133 	-0.114495 	0 8.4287 	-0.091596 	0 8.55659 	-0.0686962 	0 8.68498 	-0.0457957 	0 8.81385 	-0.0228949 	0 8.94315 	0 	0
9.72339 	0.381311 	0 9.5415 	0.555241 	0 9.39671 	0.663651 	0 9.26203 	0.754271 	0 9.2183 	0.780385 	0 8.95344 	1.27614 	0 8.70578 	1.91036 	0 8.48173 	2.72184 	0 8.46724 	2.67123 	0 8.47252 	2.45986 	0 8.50117 	2.35314 	0 8.52498 	2.2443 	0 8.51221 	2.16311 	0 8.42487 	2.14738 	0 8.30214 	2.12559 	0 8.30117 	1.9821 	0 8.28715 	1.83798 	0 8.21181 	1.72569 	0 8.035 	1.67507 	0 7.86306 	1.62575 	0 7.68323 	1.56759 	0 7.50177 	1.50875 	0 7.42793 	1.45839 	0 7.36148 	1.40771 	0 7.27865 	1.34671 	0 7.22249 	1.32376 	0 7.16614 	1.3007 	0 7.10958 	1.27753 	0 7.07928 	1.2544 	0 7.05291 	1.23121 	0 6.97394 	1.13838 	0 6.88841 	1.05226 	0 6.79883 	0.980329 	0 6.71191 	0.932083 	0 6.6228 	0.883659 	0 6.55089 	0.833775 	0 6.49228 	0.787588 	0 6.44246 	0.743856 	0 6.3887 	0.699092 	0 6.31694 	0.642267 	0 6.31477 	0.640173 	0 6.3132 	0.638348 	0 6.31172 	0.636561 	0 6.31022 	0.634773 	0 6.30868 	0.632934 	0 6.27131 	0.597064 	0 6.2315 	0.560866 	0 6.18921 	0.524335 	0 6.1444 	0.487466 	0 6.10942 	0.456256 	0 6.07601 	0.420974 	0 6.0457 	0.390999 	0 6.017 	0.364556 	0 5.99442 	0.339606 	0 5.97315 	0.315202 	0 5.95245 	0.289069 	0 5.92971 	0.262726 	0 5.91347 	0.241665 	0 5.90338 	0.222662 	0 5.89181 	0.203596 	0 5.87916 	0.183529 	0 5.86497 	0.163363 	0 5.85625 	0.1438 	0 5.85335 	0.127412 	0 5.84917 	0.110997 	0 5.84295 	0.0943632 	0 5.83548 	0.0776876 	0 5.83339 	0.0589859 	0 5.83628 	0.0431132 	0 5.83798 	0.0272409 	0 5.83715 	0.011944 	0 5.83532 	-0.00342226 	0 5.83918 	-0.0225223 	0 5.84729 	-0.0400126 	0 5.85421 	-0.0574486 	0 5.85857 	-0.0735146 	0 5.86181 	-0.0895545 	0 5.87118 	-0.110942 	0 5.88464 	-0.132478 	0 5.89661 	-0.153943 	0 5.90646 	-0.173308 	0 5.91502 	-0.192603 	0 5.92934 	-0.218062 	0 5.94822 	-0.247016 	0 5.96522 	-0.275829 	0 5.98115 	-0.30206 	0 5.99545 	-0.328141 	0 6.01448 	-0.359755 	0 6.03858 	-0.400916 	0 6.06018 	-0.441833 	0 6.08251 	-0.480295 	0 6.10471 	-0.520912 	0 6.13001 	-0.567565 	0 6.15449 	-0.619639 	0 6.17861 	-0.679446 	0 6.20599 	-0.738431 	0 6.23733 	-0.811817 	0 6.2648 	-0.884668 	0 6.28844 	-0.95698 	0 6.30855 	-1.02969 	0 6.30857 	-1.02978 	0 6.3086 	-1.02988 	0 6.30863 	-1.02998 	0 6.30865 	-1.03009 	0 6.30868 	-1.03019 	0 6.33245 	-1.12732 	0 6.35097 	-1.22236 	0 6.36436 	-1.31533 	0 6.37511 	-1.41397 	0 6.38838 	-1.53811 	0 6.40617 	-1.66385 	0 6.41772 	-1.7875 	0 6.40561 	-1.92999 	2.61928e-20 6.36921 	-2.07894 	5.36938e-20 6.31907 	-2.2337 	8.11957e-20 6.31085 	-2.28421 	2.32853e-20 6.29865 	-2.33158 	5.7222e-21 6.28227 	-2.37564 	3.11776e-20 6.26533 	-2.41944 	5.72546e-20 6.25098 	-2.45516 	7.91517e-20 6.22459 	-2.55096 	1.78879e-19 6.19626 	-2.6462 	2.82763e-19 6.16599 	-2.74086 	3.90778e-19 6.11986 	-2.82196 	2.74193e-19 6.06335 	-2.90225 	6.24582e-20 5.98339 	-3.0219 	4.92397e-20 5.89824 	-3.1386 	3.61634e-20 5.80137 	-3.23643 	8.54503e-21 5.70011 	-3.33234 	-1.80737e-20 5.62505 	-3.39903 	-3.62518e-20 5.61594 	-3.40829 	-3.60446e-20 5.6068 	-3.41755 	-3.58227e-20 5.59758 	-3.42616 	-3.69686e-20 5.58824 	-3.43308 	-4.17553e-20 5.57875 	-3.44007 	-4.65874e-20 5.45887 	-3.53628 	-2.8319e-20 5.33366 	-3.63052 	-9.47787e-21 5.20763 	-3.70749 	1.11981e-22 5.0814 	-3.76635 	-2.1766e-22 4.93222 	-3.83177 	6.00541e-23 4.93201 	-3.83189 	3.4366e-23 4.93181 	-3.832 	8.6775e-24 4.93162 	-3.83208 	1.52337e-23 4.93144 	-3.83214 	3.82384e-23 4.93126 	-3.8322 	6.1249e-23 4.80551 	-3.88156 	1.11452e-21 4.67567 	-3.92932 	2.47246e-21 4.5487 	-3.96583 	4.20088e-21 4.43103 	-3.98293 	6.32679e-21 4.33568 	-3.99531 	8.19811e-21 4.3054 	-4.00295 	1.33361e-20 4.2749 	-4.01052 	1.85119e-20 4.24964 	-4.01224 	9.20733e-21 4.22451 	-4.01359 	-8.25584e-22 4.19827 	-4.01495 	-1.12272e-20 4.12441 	-4.02226 	-6.36416e-20 4.04937 	-4.02905 	-1.15687e-19 3.9733 	-4.03517 	-1.65907e-19 3.90909 	-4.02963 	-1.01615e-19 3.85025 	-4.02425 	-4.30531e-20 3.77272 	-4.0264 	4.14422e-21 3.6953 	-4.02566 	4.19422e-20 3.62346 	-4.01355 	3.41478e-20 3.55054 	-4.00097 	2.66239e-20 3.46856 	-3.9865 	1.86004e-20 3.46517 	-3.98607 	1.92354e-20 3.46178 	-3.98565 	1.98706e-20 3.45839 	-3.98522 	2.05059e-20 3.45519 	-3.98449 	2.10391e-20 3.45208 	-3.98364 	2.15302e-20 3.38396 	-3.97164 	1.41197e-20 3.31377 	-3.95749 	7.4109e-21 3.24237 	-3.94264 	6.96758e-22 3.17059 	-3.91557 	6.17594e-21 3.10295 	-3.8888 	1.23598e-20 3.0609 	-3.8788 	3.47171e-20 3.01854 	-3.86742 	5.06065e-20 2.97697 	-3.84848 	2.33619e-20 2.935 	-3.82931 	-3.82585e-21 2.88983 	-3.80863 	-3.2733e-20 2.87167 	-3.80207 	-3.88505e-20 2.85343 	-3.79545 	-4.49702e-20 2.8351 	-3.78878 	-5.10921e-20 2.81686 	-3.7797 	-5.72997e-20 2.7989 	-3.77016 	-6.34255e-20 2.74551 	-3.74911 	-1.07155e-19 2.69128 	-3.72756 	-1.51004e-19 2.63648 	-3.69693 	-1.46192e-19 2.58206 	-3.65955 	-8.8181e-20 2.52954 	-3.62346 	-3.26979e-20 2.51264 	-3.61455 	2.02857e-21 2.49569 	-3.60543 	3.51535e-20 2.47984 	-3.59306 	2.99061e-20 2.46392 	-3.58064 	2.46938e-20 2.44752 	-3.56785 	1.93816e-20 2.41695 	-3.54875 	5.65289e-20 2.38613 	-3.52946 	9.35966e-20 2.35506 	-3.50997 	1.30582e-19 2.32504 	-3.48545 	1.03469e-19 2.29561 	-3.46099 	7.22916e-20 2.2587 	-3.43532 	4.24527e-20 2.22133 	-3.40932 	1.25816e-20 2.18678 	-3.37649 	-2.87839e-21 2.15198 	-3.3433 	-1.8078e-20 2.11487 	-3.308 	-3.41766e-20 2.11114 	-3.30513 	-3.1741e-20 2.10741 	-3.30225 	-2.93083e-20 2.10368 	-3.29937 	-2.68784e-20 2.10016 	-3.29593 	-3.39644e-20 2.09665 	-3.29247 	-4.13492e-20 2.05993 	-3.2602 	-1.64758e-19 2.0242 	-3.22587 	-2.56749e-19 1.98915 	-3.18977 	-2.99677e-19 1.95691 	-3.14889 	-1.93333e-19 1.92515 	-3.10867 	-8.89916e-20 1.91655 	-3.099 	-7.79086e-20 1.90793 	-3.08931 	-6.68214e-20 1.9006 	-3.07847 	-5.65576e-20 1.89357 	-3.06738 	-4.64842e-20 1.88648 	-3.0562 	-3.63351e-20 1.86454 	-3.03081 	-1.17855e-20 1.84249 	-3.00533 	1.27855e-20 1.82089 	-2.97916 	2.99742e-20 1.80185 	-2.95018 	1.21336e-20 1.78295 	-2.92143 	-5.54308e-21 1.76956 	-2.90248 	-2.11579e-20 1.75614 	-2.8835 	-3.6761e-20 1.7449 	-2.86321 	-1.81233e-20 1.73459 	-2.84242 	1.47043e-20 1.72429 	-2.82158 	4.76392e-20 1.71196 	-2.80439 	1.2134e-20 1.69961 	-2.78717 	-2.33209e-20 1.68789 	-2.76948 	-3.49499e-20 1.67781 	-2.75063 	1.29454e-20 1.66777 	-2.73183 	6.07091e-20 1.65443 	-2.70763 	1.97503e-19 1.64113 	-2.68346 	3.34236e-19 1.6302 	-2.65851 	2.96382e-19 1.62104 	-2.63308 	1.33628e-19 1.61212 	-2.60804 	-2.78211e-20 1.60432 	-2.59469 	-5.73622e-20 1.59652 	-2.58133 	-8.69113e-20 1.58953 	-2.56764 	-8.97659e-20 1.58365 	-2.55348 	-5.6272e-20 1.57779 	-2.53933 	-2.27516e-20 1.56779 	-2.51481 	-2.46118e-20 1.5579 	-2.49038 	-2.65119e-20 1.54996 	-2.46583 	-1.93082e-20 1.54452 	-2.44113 	-4.6912e-22 1.53945 	-2.41731 	1.77891e-20 1.5328 	-2.40284 	2.9755e-20 1.52619 	-2.38838 	4.17163e-20 1.52088 	-2.37371 	4.57492e-20 1.51653 	-2.35889 	4.41282e-20 1.51221 	-2.34403 	4.24773e-20 1.50697 	-2.32428 	2.55873e-20 1.50185 	-2.30465 	8.67171e-21 1.49781 	-2.28522 	-3.12639e-21 1.49646 	-2.26616 	-1.11289e-21 1.49536 	-2.24799 	8.21377e-22 1.48839 	-2.22749 	7.61898e-20 1.48153 	-2.20709 	1.51785e-19 1.47727 	-2.18685 	1.25699e-19 1.47394 	-2.16676 	6.77624e-20 1.47072 	-2.14649 	9.0002e-21 1.46951 	-2.13593 	-2.3425e-20 1.46836 	-2.12542 	-5.58064e-20 1.46747 	-2.11508 	-8.21612e-20 1.46901 	-2.10617 	-3.65625e-20 1.47057 	-2.09759 	7.88432e-21 1.46344 	-2.06738 	4.60707e-21 1.45661 	-2.03744 	1.31204e-21 1.45585 	-2.01087 	-2.35065e-20 1.45642 	-1.98516 	-5.17869e-20 1.459 	-1.96218 	-7.49714e-20 1.45853 	-1.96024 	-6.87294e-20 1.45807 	-1.95831 	-6.25382e-20 1.45802 	-1.95658 	-6.7212e-20 1.45798 	-1.95486 	-7.18835e-20 1.45793 	-1.95313 	-7.65651e-20 1.45605 	-1.92817 	-2.09781e-19 1.45454 	-1.90351 	-3.42261e-19 1.45376 	-1.87943 	-4.4705e-19 1.45802 	-1.85919 	-1.91365e-19 1.46239 	-1.8408 	4.71599e-20 1.46025 	-1.82593 	1.11092e-19 1.45822 	-1.81115 	1.74828e-19 1.45914 	-1.7985 	1.42196e-19 1.46018 	-1.78595 	1.09664e-19 1.46139 	-1.77315 	7.63171e-20 1.46231 	-1.76355 	6.7361e-20 1.46332 	-1.75402 	5.84271e-20 1.46441 	-1.74455 	4.95155e-20 1.46703 	-1.73634 	5.15974e-20 1.46971 	-1.72855 	5.41202e-20 1.4692 	-1.70529 	2.94271e-20 1.46904 	-1.6823 	4.67218e-21 1.47197 	-1.66175 	2.0313e-20 1.47655 	-1.64227 	4.5402e-20 1.48249 	-1.62516 	6.86346e-20 1.48247 	-1.62112 	6.75275e-20 1.48256 	-1.61717 	6.76889e-20 1.48314 	-1.61358 	7.51725e-20 1.48374 	-1.61001 	8.26542e-20 1.48435 	-1.6064 	9.02223e-20 1.48707 	-1.59062 	1.39719e-19 1.49005 	-1.57504 	1.89092e-19 1.4933 	-1.55966 	2.38339e-19 1.49849 	-1.54613 	1.68553e-19 1.50391 	-1.53392 	8.20876e-20 1.50557 	-1.51447 	1.55293e-19 1.50807 	-1.49574 	2.03303e-19 1.51268 	-1.47895 	1.61532e-19 1.51764 	-1.46242 	1.2029e-19 1.52334 	-1.44496 	7.65928e-20 1.52337 	-1.44486 	7.62272e-20 1.52341 	-1.44476 	7.58616e-20 1.52344 	-1.44466 	7.54961e-20 1.52349 	-1.44457 	7.59822e-20 1.52353 	-1.44449 	7.6841e-20 1.52792 	-1.42745 	1.27097e-19 1.53273 	-1.41069 	1.75146e-19 1.53792 	-1.3942 	2.22803e-19 1.54469 	-1.37949 	1.84346e-19 1.5518 	-1.36657 	1.17215e-19 1.55514 	-1.34896 	2.03247e-19 1.55936 	-1.33225 	2.39078e-19 1.56501 	-1.3171 	1.7433e-19 1.57099 	-1.30219 	1.09796e-19 1.57733 	-1.28864 	3.78779e-20 1.57755 	-1.28769 	3.76365e-20 1.57781 	-1.28679 	3.68404e-20 1.57812 	-1.28594 	3.53448e-20 1.57843 	-1.28509 	3.38488e-20 1.57874 	-1.28424 	3.23445e-20 1.58397 	-1.27025 	-1.32917e-20 1.58951 	-1.25646 	-5.88484e-20 1.59534 	-1.24287 	-1.04323e-19 1.60207 	-1.23049 	-8.93655e-20 1.60915 	-1.21973 	-2.99136e-20 1.6136 	-1.20421 	-7.53012e-20 1.61837 	-1.18889 	-1.21102e-19 1.62446 	-1.17552 	-1.03386e-19 1.63174 	-1.16285 	-6.09368e-20 1.63977 	-1.15147 	3.30254e-22 1.64205 	-1.14468 	2.86181e-20 1.64465 	-1.1384 	2.81075e-20 1.64749 	-1.13247 	7.0781e-21 1.6504 	-1.12659 	-1.39011e-20 1.65352 	-1.12046 	-3.58692e-20 1.65718 	-1.11359 	-6.79746e-20 1.66093 	-1.10677 	-9.99671e-20 1.66477 	-1.10002 	-1.31846e-19 1.66884 	-1.09369 	-1.31388e-19 1.6731 	-1.08818 	-7.9885e-20 1.67825 	-1.07444 	-1.11923e-19 1.68427 	-1.06117 	-1.36312e-19 1.69161 	-1.04877 	-1.45655e-19 1.6998 	-1.03816 	-1.35325e-19 1.70789 	-1.02819 	-1.25336e-19 1.71368 	-1.01468 	-2.75643e-19 1.71995 	-1.00199 	-3.49566e-19 1.72684 	-0.990554 	-2.95497e-19 1.73399 	-0.979273 	-2.41935e-19 1.74228 	-0.969189 	-1.1612e-19 1.74436 	-0.964894 	-8.29224e-20 1.74659 	-0.961045 	-8.51209e-20 1.74888 	-0.95733 	-9.68701e-20 1.7512 	-0.95363 	-1.08572e-19 1.75364 	-0.94979 	-1.20724e-19 1.75853 	-0.942393 	-1.24352e-19 1.76354 	-0.935064 	-1.27953e-19 1.76867 	-0.927802 	-1.31526e-19 1.77394 	-0.920832 	-1.29703e-19 1.7793 	-0.915035 	-1.05189e-19 1.78536 	-0.903104 	-1.32801e-19 1.79241 	-0.89174 	-1.44919e-19 1.80035 	-0.880887 	-1.4369e-19 1.80867 	-0.871825 	-1.02932e-19 1.81696 	-0.863294 	-6.09055e-20 1.82358 	-0.851602 	-1.6487e-19 1.83046 	-0.840083 	-2.66374e-19 1.83762 	-0.83039 	-2.25063e-19 1.84583 	-0.821278 	-1.27949e-19 1.85452 	-0.812832 	4.50132e-23 1.86111 	-0.802318 	1.42899e-22 1.86786 	-0.793429 	1.08413e-22 1.87481 	-0.784682 	6.9943e-23 1.88194 	-0.776035 	3.10478e-23 1.89028 	-0.766307 	-1.37023e-23 1.89069 	-0.765855 	7.7205e-22 1.89111 	-0.765404 	1.55724e-21 1.89152 	-0.764953 	2.34188e-21 1.89193 	-0.764502 	3.12596e-21 1.89233 	-0.76414 	4.6049e-22 1.89981 	-0.754681 	-2.55445e-20 1.9076 	-0.745397 	-4.74119e-20 1.91562 	-0.736225 	-6.91009e-20 1.92386 	-0.727181 	-8.98521e-20 1.93176 	-0.720193 	-3.11658e-20 1.93865 	-0.710237 	-2.10953e-20 1.94622 	-0.700717 	-1.38601e-20 1.95461 	-0.691733 	-1.03476e-20 1.96278 	-0.684467 	-1.59523e-20 1.97092 	-0.677599 	-2.2418e-20 1.97824 	-0.667892 	5.3976e-20 1.98578 	-0.658288 	1.30483e-19 1.9932 	-0.650202 	1.32364e-19 2.00152 	-0.643256 	6.57245e-20 2.00986 	-0.636513 	1.62711e-22 2.01757 	-0.627061 	9.65666e-23 2.0251 	-0.61869 	-1.12436e-20 2.03253 	-0.611149 	-3.10892e-20 2.04014 	-0.603687 	-5.09111e-20 2.0486 	-0.597045 	-6.39716e-20 2.05548 	-0.589375 	-1.06349e-19 2.06198 	-0.582893 	-1.0989e-19 2.06862 	-0.576469 	-1.1349e-19 2.07539 	-0.570101 	-1.17149e-19 2.08331 	-0.562855 	-1.21416e-19 2.08411 	-0.56216 	-1.22652e-19 2.08491 	-0.561466 	-1.23887e-19 2.08571 	-0.560773 	-1.25123e-19 2.08651 	-0.56008 	-1.26357e-19 2.08724 	-0.559517 	-1.22171e-19 2.0947 	-0.552214 	-9.42509e-20 2.10239 	-0.545057 	-6.50076e-20 2.11027 	-0.537968 	-3.58022e-20 2.11831 	-0.530949 	-6.63482e-21 2.12557 	-0.525464 	1.79185e-22 2.13273 	-0.517699 	6.74884e-20 2.14055 	-0.510715 	8.65742e-20 2.14857 	-0.503823 	1.03711e-19 2.15622 	-0.497751 	8.42878e-20 2.16323 	-0.492832 	1.48586e-20 2.17062 	-0.48531 	-5.50829e-20 2.17824 	-0.477935 	-1.18948e-19 2.1863 	-0.471298 	-1.35005e-19 2.19322 	-0.466434 	-6.72719e-20 2.2002 	-0.461653 	-7.22945e-23 2.20778 	-0.454373 	-3.93971e-23 2.21555 	-0.447153 	-6.67197e-24 2.22266 	-0.441291 	0 2.2295 	-0.436574 	0 2.23641 	-0.431931 	0 2.24416 	-0.424893 	0 2.25183 	-0.418179 	0 2.25833 	-0.412944 	0 2.26503 	-0.408167 	-1.01114e-20 2.27184 	-0.403662 	-2.51343e-20 2.27972 	-0.396864 	-6.19872e-21 2.28664 	-0.391231 	-6.37056e-21 2.29313 	-0.386181 	-1.58365e-20 2.29975 	-0.381194 	-2.66895e-20 2.30642 	-0.376827 	-6.64331e-20 2.31413 	-0.370518 	-2.85106e-20 2.32048 	-0.365617 	-3.02995e-20 2.32695 	-0.36075 	-3.20602e-20 2.33354 	-0.355915 	-3.3793e-20 2.34013 	-0.351397 	-4.64556e-20 2.34635 	-0.346555 	-3.694e-20 2.35194 	-0.342357 	-3.83846e-20 2.35762 	-0.338183 	-3.98079e-20 2.36339 	-0.334033 	-4.121e-20 2.37021 	-0.329235 	-4.2816e-20 2.37075 	-0.328862 	-4.26919e-20 2.3713 	-0.328489 	-4.2568e-20 2.37185 	-0.328116 	-4.24442e-20 2.3724 	-0.327743 	-4.23207e-20 2.37288 	-0.327427 	-4.25069e-20 2.37904 	-0.322837 	-4.92986e-20 2.38531 	-0.318301 	-5.38463e-20 2.39168 	-0.313794 	-5.83171e-20 2.39816 	-0.309314 	-6.27114e-20 2.40379 	-0.305589 	-3.8954e-20 2.41013 	-0.300873 	-7.52311e-20 2.41629 	-0.296514 	-8.73633e-20 2.42256 	-0.29218 	-9.94368e-20 2.42893 	-0.287871 	-1.11452e-19 2.43357 	-0.284886 	-7.12831e-20 2.44014 	-0.280102 	-1.18636e-19 2.44618 	-0.275915 	-1.21161e-19 2.45233 	-0.271752 	-1.23641e-19 2.45821 	-0.26785 	-1.18992e-19 2.46218 	-0.265286 	-7.53366e-20 2.4688 	-0.260671 	-1.17866e-19 2.47496 	-0.256465 	-1.2807e-19 2.48096 	-0.252471 	-1.22464e-19 2.4859 	-0.249211 	-9.48027e-20 2.48963 	-0.246753 	-4.32002e-20 2.49622 	-0.24234 	4.31587e-20 2.50261 	-0.23812 	1.03956e-19 2.50845 	-0.234292 	1.0945e-19 2.51242 	-0.231605 	5.03792e-20 2.51591 	-0.22925 	-2.66882e-20 2.52245 	-0.225037 	-1.75848e-20 2.5291 	-0.220842 	-8.49122e-21 2.53461 	-0.21726 	8.66926e-21 2.53779 	-0.214993 	2.59579e-20 2.54102 	-0.212739 	4.32213e-20 2.5475 	-0.208721 	-4.33243e-20 2.55408 	-0.20472 	-1.29883e-19 2.55907 	-0.2015 	-1.41232e-19 2.56199 	-0.199333 	-7.10692e-20 2.56496 	-0.197178 	-1.00544e-21 2.57136 	-0.193352 	-9.21807e-23 2.57786 	-0.18954 	8.00286e-22 2.58237 	-0.186656 	-1.56567e-20 2.58503 	-0.184588 	-4.94041e-20 2.58773 	-0.18253 	-8.31265e-20 2.59405 	-0.17889 	-4.76706e-20 2.60046 	-0.175264 	-1.22305e-20 2.60453 	-0.172689 	-8.5468e-21 2.60692 	-0.170717 	-2.59306e-20 2.60935 	-0.168753 	-4.32988e-20 2.61557 	-0.165296 	-2.59879e-20 2.62187 	-0.161854 	-8.72166e-21 2.62548 	-0.159577 	-9.46581e-21 2.62767 	-0.157681 	-2.6054e-20 2.62984 	-0.15581 	-4.33796e-20 2.63595 	-0.152531 	-1.64888e-19 2.64159 	-0.149478 	-2.61725e-19 2.64504 	-0.147319 	-2.57036e-19 2.6473 	-0.145441 	-1.6475e-19 2.6492 	-0.143661 	-4.336e-20 2.6552 	-0.140555 	-2.59818e-20 2.6602 	-0.137849 	-8.62121e-21 2.66348 	-0.135806 	8.70899e-21 2.66583 	-0.13396 	2.13124e-20 2.66747 	-0.132268 	3.02544e-20 2.67334 	-0.12933 	9.13234e-20 2.67773 	-0.126934 	1.1867e-19 2.68084 	-0.125002 	1.16997e-19 2.68328 	-0.1232 	9.2115e-20 2.68466 	-0.121594 	3.16779e-20 2.6904 	-0.11882 	2.32357e-20 2.6942 	-0.116699 	1.48098e-20 2.69715 	-0.114876 	6.3889e-21 2.69968 	-0.113127 	0 2.7008 	-0.111605 	0 2.70641 	-0.10899 	0 2.70965 	-0.107112 	1.47253e-20 2.71243 	-0.105394 	3.25557e-20 2.71505 	-0.103707 	5.0371e-20 2.71592 	-0.102266 	6.8113e-20 2.7214 	-0.0998042 	1.90111e-19 2.72411 	-0.0981426 	1.93593e-19 2.72673 	-0.096525 	1.91066e-19 2.72939 	-0.0949105 	1.8859e-19 2.73006 	-0.093544 	7.02189e-20 2.7352 	-0.091282 	5.32045e-20 2.73761 	-0.089759 	3.62432e-20 2.74007 	-0.0882389 	1.92738e-20 2.74257 	-0.0867215 	2.29623e-21 2.74324 	-0.0854063 	1.46956e-20 2.74793 	-0.083361 	-4.34768e-24 2.75019 	-0.0819323 	-2.98937e-23 2.75249 	-0.080506 	-5.54296e-23 2.75482 	-0.0790821 	-8.09553e-23 2.75551 	-0.0778225 	6.38798e-21 2.75977 	-0.0759723 	-5.07977e-20 2.76188 	-0.0746342 	-4.94989e-20 2.76402 	-0.0732982 	-4.82276e-20 2.7662 	-0.0719643 	-4.69836e-20 2.76688 	-0.0707634 	-5.64279e-21 2.77076 	-0.0690885 	8.56005e-23 2.77271 	-0.0678375 	6.04939e-23 2.77471 	-0.0665882 	3.53776e-23 2.77673 	-0.0653408 	1.02516e-23 2.77741 	-0.0642006 	0 2.78092 	-0.0626837 	1.11934e-20 2.78273 	-0.0615161 	3.75169e-20 2.78458 	-0.06035 	6.38316e-20 2.78646 	-0.0591854 	9.01377e-20 2.78713 	-0.0581072 	1.07502e-19 2.7903 	-0.0567325 	1.73091e-19 2.79198 	-0.0556448 	1.72013e-19 2.79369 	-0.0545584 	1.70963e-19 2.79542 	-0.0534732 	1.6994e-19 2.79608 	-0.0524573 	1.02493e-19 2.79894 	-0.0512108 	8.75833e-20 2.80048 	-0.0501994 	5.31495e-20 2.80205 	-0.0491892 	1.87102e-20 2.80366 	-0.04818 	-1.57345e-20 2.80429 	-0.0472262 	-4.66897e-20 2.80687 	-0.0460954 	-9.02003e-20 2.80828 	-0.0451569 	-8.89925e-20 2.80973 	-0.0442193 	-8.78184e-20 2.8112 	-0.0432826 	-8.66782e-20 2.81181 	-0.0423903 	-3.70519e-20 2.81412 	-0.0413639 	-4.95298e-20 2.81542 	-0.0404948 	-3.1709e-20 2.81674 	-0.0396265 	-1.39061e-20 2.81809 	-0.0387589 	3.87902e-21 2.81866 	-0.0379268 	4.31042e-20 2.82075 	-0.0369951 	4.98658e-20 2.82193 	-0.0361919 	6.73369e-20 2.82313 	-0.0353895 	8.47997e-20 2.82436 	-0.0345876 	1.02254e-19 2.8249 	-0.0338143 	1.22069e-19 2.82677 	-0.0329682 	1.4622e-19 2.82784 	-0.0322277 	1.36997e-19 2.82894 	-0.0314878 	1.27796e-19 2.83006 	-0.0307484 	1.18615e-19 2.83055 	-0.0300319 	8.16908e-20 2.83223 	-0.0292637 	5.8066e-20 2.8332 	-0.0285825 	3.23177e-20 2.83419 	-0.0279018 	6.56759e-21 2.83521 	-0.0272216 	-1.91844e-20 2.83564 	-0.02656 	-4.10476e-20 2.83717 	-0.0258625 	-5.61493e-20 2.83804 	-0.0252375 	-3.83749e-20 2.83893 	-0.0246129 	-2.06266e-20 2.83985 	-0.0239886 	-2.90429e-21 2.84023 	-0.0233796 	4.84799e-20 2.8416 	-0.0227467 	1.02289e-19 2.84239 	-0.0221746 	1.09969e-19 2.84319 	-0.0216029 	1.17692e-19 2.84401 	-0.0210314 	1.25459e-19 2.84433 	-0.0204726 	8.86197e-20 2.84558 	-0.0198987 	7.18028e-20 2.84628 	-0.0193766 	6.32592e-20 2.847 	-0.0188547 	5.47114e-20 2.84773 	-0.018333 	4.61595e-20 2.84798 	-0.017822 	3.76103e-20 2.84913 	-0.017302 	1.4433e-20 2.84975 	-0.0168268 	1.47812e-20 2.85039 	-0.0163517 	1.51069e-20 2.85104 	-0.0158768 	1.54099e-20 2.85122 	-0.015411 	4.14761e-20 2.85228 	-0.0149405 	3.98609e-20 2.85282 	-0.