# vtk DataFile Version 2.0
track0
ASCII
DATASET POLYDATA
POINTS 12278 float
-0.0205 0.001 1e-05
-0.02052 0.000999216 1e-05
-0.02054 0.000998592 1e-05
-0.02056 0.000998126 1e-05
-0.02058 0.000997818 1e-05
-0.0206 0.000997665 1e-05
-0.0205 0.00367778 1e-05
-0.02052 0.00367703 1e-05
-0.02054 0.00367643 1e-05
-0.02056 0.00367599 1e-05
-0.02058 0.00367569 1e-05
-0.0206 0.00367554 1e-05
-0.0205 0.00635556 1e-05
-0.02052 0.00635527 1e-05
-0.02054 0.00635505 1e-05
-0.02056 0.00635488 1e-05
-0.02058 0.00635476 1e-05
-0.0206 0.00635471 1e-05
-0.0205 0.00903333 1e-05
-0.02052 0.00903311 1e-05
-0.02054 0.00903293 1e-05
-0.02056 0.0090328 1e-05
-0.02058 0.00903271 1e-05
-0.0206 0.00903266 1e-05
-0.0205 0.0117111 1e-05
-0.02052 0.0117111 1e-05
-0.02054 0.011711 1e-05
-0.02056 0.011711 1e-05
-0.02058 0.011711 1e-05
-0.0206 0.011711 1e-05
-0.0205 0.0143889 1e-05
-0.02052 0.014389 1e-05
-0.02054 0.014389 1e-05
-0.02056 0.0143891 1e-05
-0.02058 0.0143891 1e-05
-0.0206 0.0143891 1e-05
-0.0205 0.0170667 1e-05
-0.02052 0.017067 1e-05
-0.02054 0.0170672 1e-05
-0.02056 0.0170674 1e-05
-0.02058 0.0170675 1e-05
-0.0206 0.0170676 1e-05
-0.0205 0.0197444 1e-05
-0.02052 0.019745 1e-05
-0.02054 0.0197454 1e-05
-0.02056 0.0197457 1e-05
-0.02058 0.0197459 1e-05
-0.0206 0.019746 1e-05
-0.0205 0.0224222 1e-05
-0.02052 0.022423 1e-05
-0.02054 0.0224236 1e-05
-0.02056 0.0224241 1e-05
-0.02058 0.0224244 1e-05
-0.0206 0.0224245 1e-05
-0.0205 0.0251 1e-05
-0.02052 0.0251003 1e-05
-0.02054 0.0251005 1e-05
-0.02056 0.0251007 1e-05
-0.02058 0.0251008 1e-05
-0.0206 0.0251008 1e-05
-0.0205 0.001 1e-05
-0.0203632 0.00100536 1e-05
-0.0202266 0.00101331 1e-05
-0.0200901 0.00102296 1e-05
-0.0200427 0.00102682 1e-05
-0.0198376 0.00104418 1e-05
-0.0196338 0.00107322 1e-05
-0.0194327 0.00111734 1e-05
-0.0192368 0.00118024 1e-05
-0.0190172 0.00124951 1e-05
-0.0189002 0.00128348 1e-05
-0.0187827 0.00131598 1e-05
-0.0186649 0.001347 1e-05
-0.0185469 0.001377 1e-05
-0.0183807 0.00141936 1e-05
-0.0182041 0.00146458 1e-05
-0.0180267 0.00150692 1e-05
-0.0178487 0.0015464 1e-05
-0.0176703 0.00158389 1e-05
-0.0174976 0.00161991 1e-05
-0.0172846 0.00166394 1e-05
-0.0170715 0.00170741 1e-05
-0.0168583 0.00175029 1e-05
-0.0166449 0.00179219 1e-05
-0.0163945 0.00184007 1e-05
-0.0163234 0.00185324 1e-05
-0.0162522 0.00186629 1e-05
-0.016181 0.00187921 1e-05
-0.0161097 0.00189201 1e-05
-0.0160387 0.0019046 1e-05
-0.0157586 0.0019535 1e-05
-0.0154779 0.00199931 1e-05
-0.0151968 0.00204225 1e-05
-0.0149154 0.00208283 1e-05
-0.0146381 0.00212134 1e-05
-0.0143838 0.00215527 1e-05
-0.0141293 0.00218766 1e-05
-0.0138747 0.00221855 1e-05
-0.0136198 0.00224797 1e-05
-0.0132934 0.00228369 1e-05
-0.0132791 0.00228515 1e-05
-0.0132648 0.0022866 1e-05
-0.0132504 0.00228805 1e-05
-0.0132361 0.0022895 1e-05
-0.0132214 0.00229098 1e-05
-0.0129776 0.00231543 1e-05
-0.0127337 0.00233865 1e-05
-0.0124897 0.00236061 1e-05
-0.0122456 0.0023813 1e-05
-0.0120025 0.00240058 1e-05
-0.0117547 0.00241909 1e-05
-0.0115067 0.00243627 1e-05
-0.0112587 0.00245231 1e-05
-0.0110106 0.00246734 1e-05
-0.0107632 0.00248136 1e-05
-0.0105252 0.00249391 1e-05
-0.0102872 0.00250547 1e-05
-0.0100491 0.00251602 1e-05
-0.00981105 0.00252575 1e-05
-0.00957337 0.00253471 1e-05
-0.00934491 0.00254261 1e-05
-0.00911643 0.00254974 1e-05
-0.00888792 0.0025561 1e-05
-0.0086594 0.00256171 1e-05
-0.00843108 0.00256668 1e-05
-0.00821175 0.00257084 1e-05
-0.00799241 0.00257439 1e-05
-0.00777306 0.00257731 1e-05
-0.0075537 0.00257952 1e-05
-0.00733443 0.00258114 1e-05
-0.00712387 0.00258212 1e-05
-0.0069133 0.00258255 1e-05
-0.00670273 0.00258243 1e-05
-0.00649216 0.00258162 1e-05
-0.0062816 0.00258017 1e-05
-0.00607944 0.00257819 1e-05
-0.0058773 0.00257565 1e-05
-0.00567516 0.00257256 1e-05
-0.00547303 0.00256874 1e-05
-0.00527083 0.00256419 1e-05
-0.00507675 0.00255912 1e-05
-0.00488269 0.00255342 1e-05
-0.00468865 0.0025471 1e-05
-0.00449464 0.00253997 1e-05
-0.00430044 0.0025319 1e-05
-0.00411412 0.00252328 1e-05
-0.00392784 0.00251387 1e-05
-0.00374159 0.00250368 1e-05
-0.0035554 0.00249254 1e-05
-0.00336883 0.00248015 1e-05
-0.00318995 0.00246711 1e-05
-0.00301115 0.00245299 1e-05
-0.00283245 0.00243774 1e-05
-0.00265386 0.0024212 1e-05
-0.00247443 0.00240313 1e-05
-0.0023027 0.00238424 1e-05
-0.00213114 0.00236383 1e-05
-0.00195982 0.00234153 1e-05
-0.00178875 0.00231737 1e-05
-0.00161577 0.00229104 1e-05
-0.0016157 0.00229103 1e-05
-0.00161562 0.00229101 1e-05
-0.00161554 0.002291 1e-05
-0.00161547 0.00229099 1e-05
-0.00161539 0.00229098 1e-05
-0.0014506 0.00226407 1e-05
-0.0012862 0.00223481 1e-05
-0.00112224 0.00220325 1e-05
-0.000958716 0.00216945 1e-05
-0.000791418 0.00213235 1e-05
-0.000633135 0.00209423 1e-05
-0.000475556 0.0020533 1e-05
-0.000318719 0.00200962 1e-05
-0.000162835 0.00196264 1e-05
0 0.00190949 1e-05
3.73241e-05 0.00189629 1e-05
7.45483e-05 0.00188282 1e-05
0.000111674 0.00186908 1e-05
0.000148703 0.00185507 1e-05
0.000179002 0.00184337 1e-05
0.000248879 0.00181593 1e-05
0.000318345 0.00178746 1e-05
0.000387386 0.00175798 1e-05
0.000455986 0.00172748 1e-05
0.000528387 0.0016941 1e-05
0.000634886 0.00164311 1e-05
0.000740278 0.00158988 1e-05
0.00084451 0.00153441 1e-05
0.00094762 0.00147689 1e-05
0.0010198 0.00143468 1e-05
0.00102802 0.00142972 1e-05
0.00103622 0.00142474 1e-05
0.00104442 0.00141974 1e-05
0.00105261 0.00141473 1e-05
0.00106088 0.00140965 1e-05
0.00116821 0.00134346 1e-05
0.00127404 0.0012749 1e-05
0.00137827 0.00120394 1e-05
0.00148099 0.0011308 1e-05
0.0015966 0.00104511 1e-05
0.00159678 0.00104496 1e-05
0.00159697 0.00104482 1e-05
0.00159715 0.00104468 1e-05
0.00159733 0.00104453 1e-05
0.00159752 0.00104439 1e-05
0.00169216 0.000970837 1e-05
0.0017854 0.000895518 1e-05
0.00187716 0.000818401 1e-05
0.0019675 0.00073963 1e-05
0.00203788 0.000676366 1e-05
0.00205797 0.000657854 1e-05
0.00207798 0.000639253 1e-05
0.0020979 0.000620562 1e-05
0.00211776 0.000601807 1e-05
0.00213833 0.000582268 1e-05
0.00219143 0.000531473 1e-05
0.00224404 0.000480162 1e-05
0.00229614 0.000428326 1e-05
0.0023477 0.00037596 1e-05
0.00239398 0.000328254 1e-05
0.00245185 0.000267765 1e-05
0.00250909 0.000206676 1e-05
0.0025657 0.000145003 1e-05
0.00262179 8.28627e-05 1e-05
0.00268334 1.35028e-05 1e-05
0.00268569 1.08022e-05 1e-05
0.00268804 8.10068e-06 1e-05
0.00269038 5.39814e-06 1e-05
0.00269273 2.69461e-06 1e-05
0.00269507 0 1e-05
0.00275896 -7.37367e-05 1e-05
0.00282224 -0.000148005 1e-05
0.00288488 -0.000222813 1e-05
0.00294685 -0.000298172 1e-05
0.00300392 -0.000368654 1e-05
0.00304966 -0.000425969 1e-05
0.00309508 -0.000483531 1e-05
0.00314019 -0.000541335 1e-05
0.00318506 -0.000599334 1e-05
0.00323259 -0.000661351 1e-05
0.00325061 -0.000685099 1e-05
0.00326857 -0.000708887 1e-05
0.00328648 -0.000732715 1e-05
0.00330434 -0.000756583 1e-05
0.00332186 -0.000780089 1e-05
0.00339 -0.000871876 1e-05
0.00345754 -0.000964106 1e-05
0.00352446 -0.00105679 1e-05
0.00359084 -0.00114986 1e-05
0.0036537 -0.00123896 1e-05
0.00368018 -0.00127689 1e-05
0.00370659 -0.00131487 1e-05
0.00373292 -0.00135291 1e-05
0.0037592 -0.00139099 1e-05
0.00378611 -0.00143009 1e-05
0.00383006 -0.00149417 1e-05
0.0038738 -0.00155839 1e-05
0.00391732 -0.00162276 1e-05
0.00396061 -0.00168728 1e-05
0.00400274 -0.00175043 1e-05
0.00407098 -0.00185331 1e-05
0.0041388 -0.00195646 1e-05
0.00420619 -0.00205989 1e-05
0.0042733 -0.00216351 1e-05
0.00434393 -0.00227323 1e-05
0.00434995 -0.00228264 1e-05
0.00435596 -0.00229206 1e-05
0.00436198 -0.00230148 1e-05
0.00436798 -0.0023109 1e-05
0.00437397 -0.0023203 1e-05
0.00445482 -0.00244725 1e-05
0.00453522 -0.00257448 1e-05
0.00461522 -0.00270197 1e-05
0.00469487 -0.00282967 1e-05
0.00477274 -0.00295497 1e-05
0.00479941 -0.00299803 1e-05
0.00482606 -0.00304111 1e-05
0.00485267 -0.0030842 1e-05
0.00487928 -0.0031273 1e-05
0.00490609 -0.00317072 1e-05
0.0049667 -0.0032689 1e-05
0.00502717 -0.00336718 1e-05
0.00508748 -0.00346554 1e-05
0.00514766 -0.00356399 1e-05
0.00520729 -0.00366161 1e-05
0.00526035 -0.00374854 1e-05
0.00531338 -0.00383551 1e-05
0.00536637 -0.0039225 1e-05
0.00541938 -0.00400947 1e-05
0.00547262 -0.0040967 1e-05
0.00551558 -0.00416699 1e-05
0.0055585 -0.00423729 1e-05
0.00560139 -0.00430761 1e-05
0.00564427 -0.00437795 1e-05
0.00568707 -0.00444811 1e-05
0.00575837 -0.00456488 1e-05
0.00582971 -0.00468161 1e-05
0.0059011 -0.00479832 1e-05
0.00597263 -0.00491494 1e-05
0.00604356 -0.00503013 1e-05
0.0060798 -0.00508875 1e-05
0.00611606 -0.00514737 1e-05
0.00615232 -0.00520599 1e-05
0.0061886 -0.00526459 1e-05
0.00622499 -0.00532326 1e-05
0.00630378 -0.00545003 1e-05
0.00638276 -0.00557669 1e-05
0.00646193 -0.00570322 1e-05
0.00654138 -0.00582958 1e-05
0.00661893 -0.00595212 1e-05
0.00666283 -0.00602104 1e-05
0.00670678 -0.00608992 1e-05
0.00675078 -0.00615877 1e-05
0.00679487 -0.00622756 1e-05
0.00683934 -0.00629671 1e-05
0.00691123 -0.00640811 1e-05
0.00698337 -0.00651935 1e-05
0.00705577 -0.00663042 1e-05
0.00712846 -0.0067413 1e-05
0.00719878 -0.00684776 1e-05
0.00726948 -0.00695401 1e-05
0.0073404 -0.00706012 1e-05
0.00741154 -0.00716608 1e-05
0.00748299 -0.00727183 1e-05
0.00755598 -0.00737909 1e-05
0.00760141 -0.00744538 1e-05
0.00764697 -0.00751158 1e-05
0.00769265 -0.00757769 1e-05
0.00773847 -0.00764371 1e-05
0.00778313 -0.00770772 1e-05
0.00790091 -0.00787568 1e-05
0.00801946 -0.0080431 1e-05
0.00813878 -0.00820997 1e-05
0.0082591 -0.00837611 1e-05
0.00837203 -0.00853001 1e-05
0.00837975 -0.00854039 1e-05
0.00838747 -0.00855076 1e-05
0.00839519 -0.00856113 1e-05
0.00840292 -0.0085715 1e-05
0.00841068 -0.00858189 1e-05
0.00852164 -0.00873051 1e-05
0.00863343 -0.0088785 1e-05
0.00874606 -0.00902586 1e-05
0.00885956 -0.00917255 1e-05
0.00896551 -0.00930762 1e-05
0.00903015 -0.00938896 1e-05
0.00909504 -0.00947009 1e-05
0.00916021 -0.00955101 1e-05
0.00922568 -0.00963168 1e-05
0.00929332 -0.00971439 1e-05
0.00934737 -0.00977996 1e-05
0.00940162 -0.00984537 1e-05
0.00945607 -0.00991061 1e-05
0.00951072 -0.00997569 1e-05
0.0095636 -0.0100383 1e-05
0.00968415 -0.01018 1e-05
[...]
POINT_DATA 12278
 FIELD attributes 1
U 3 12278 float
9.72339 	0.381311 	0 9.77871 	0.305049 	0 9.83405 	0.228765 	0 9.8894 	0.152465 	0 9.94476 	0.0761532 	0 10 	0 	0
10.0671 	0.375483 	0 10.0537 	0.300387 	0 10.0403 	0.225271 	0 10.0268 	0.150141 	0 10.0134 	0.0750009 	0 10 	0 	0
10.0364 	0.141572 	0 10.0291 	0.113304 	0 10.0218 	0.085089 	0 10.0145 	0.0569263 	0 10.0071 	0.0288164 	0 10 	0 	0
10.0137 	0.111519 	0 10.011 	0.0892152 	0 10.0082 	0.0669109 	0 10.0055 	0.0446062 	0 10.0027 	0.0223012 	0 10 	0 	0
10.0097 	0.0196535 	0 10.0078 	0.0157228 	0 10.0058 	0.0117921 	0 10.0039 	0.00786139 	0 10.0019 	0.00393068 	0 10 	0 	0
10.0102 	-0.0372874 	0 10.0082 	-0.0298299 	0 10.0061 	-0.0223724 	0 10.0041 	-0.0149149 	0 10.002 	-0.00745739 	0 10 	0 	0
10.0174 	-0.148996 	0 10.0139 	-0.119197 	0 10.0105 	-0.0893967 	0 10.007 	-0.0595953 	0 10.0035 	-0.0297932 	0 10 	0 	0
10.0362 	-0.265901 	0 10.029 	-0.212721 	0 10.0217 	-0.159534 	0 10.0145 	-0.106342 	0 10.0072 	-0.053146 	0 10 	0 	0
10.0563 	-0.387167 	0 10.045 	-0.309734 	0 10.0338 	-0.23228 	0 10.0225 	-0.15481 	0 10.0112 	-0.0773281 	0 10 	0 	0
8.30133 	-0.114495 	0 8.4287 	-0.091596 	0 8.55659 	-0.0686962 	0 8.68498 	-0.0457957 	0 8.81385 	-0.0228949 	0 8.94315 	0 	0
9.72339 	0.381311 	0 9.5415 	0.555241 	0 9.39671 	0.663651 	0 9.26203 	0.754272 	0 9.2183 	0.780385 	0 8.95344 	1.27614 	0 8.70578 	1.91036 	0 8.48173 	2.72184 	0 8.46724 	2.67123 	0 8.47252 	2.45986 	0 8.50117 	2.35314 	0 8.52498 	2.2443 	0 8.51221 	2.16311 	0 8.42487 	2.14738 	0 8.30214 	2.12559 	0 8.30117 	1.9821 	0 8.28715 	1.83798 	0 8.21181 	1.72569 	0 8.035 	1.67507 	0 7.86306 	1.62575 	0 7.68323 	1.56759 	0 7.50177 	1.50875 	0 7.42793 	1.45839 	0 7.36148 	1.40771 	0 7.27865 	1.34671 	0 7.22249 	1.32376 	0 7.16614 	1.3007 	0 7.10958 	1.27753 	0 7.07928 	1.2544 	0 7.05291 	1.23121 	0 6.97394 	1.13838 	0 6.88841 	1.05226 	0 6.79883 	0.980329 	0 6.71191 	0.932083 	0 6.6228 	0.883658 	0 6.55089 	0.833775 	0 6.49228 	0.787588 	0 6.44246 	0.743855 	0 6.3887 	0.699091 	0 6.31694 	0.642265 	0 6.31477 	0.640171 	0 6.3132 	0.638346 	0 6.31172 	0.636559 	0 6.31023 	0.634771 	0 6.30868 	0.632932 	0 6.27132 	0.597062 	0 6.23151 	0.560863 	0 6.18922 	0.524331 	0 6.1444 	0.487462 	0 6.10943 	0.456251 	0 6.07602 	0.420969 	0 6.04571 	0.390994 	0 6.01701 	0.36455 	0 5.99443 	0.339599 	0 5.97316 	0.315194 	0 5.95246 	0.28906 	0 5.92972 	0.262717 	0 5.91348 	0.241655 	0 5.9034 	0.222651 	0 5.89182 	0.203583 	0 5.87917 	0.183516 	0 5.86498 	0.163349 	0 5.85627 	0.143784 	0 5.85337 	0.127395 	0 5.8492 	0.110979 	0 5.84297 	0.0943441 	0 5.8355 	0.0776674 	0 5.83342 	0.0589645 	0 5.83631 	0.04309 	0 5.83801 	0.0272159 	0 5.83718 	0.0119177 	0 5.83536 	-0.00344947 	0 5.83922 	-0.0225517 	0 5.84733 	-0.040044 	0 5.85426 	-0.0574823 	0 5.85862 	-0.0735499 	0 5.86186 	-0.0895916 	0 5.87123 	-0.11098 	0 5.88469 	-0.132519 	0 5.89667 	-0.153987 	0 5.90652 	-0.173355 	0 5.91509 	-0.192652 	0 5.92941 	-0.218112 	0 5.9483 	-0.24707 	0 5.96529 	-0.275887 	0 5.98123 	-0.302121 	0 5.99553 	-0.328205 	0 6.01457 	-0.35982 	0 6.03868 	-0.400986 	0 6.06028 	-0.441909 	0 6.08262 	-0.480375 	0 6.10483 	-0.521 	0 6.13013 	-0.567659 	0 6.15461 	-0.619731 	0 6.17874 	-0.679545 	0 6.20613 	-0.738544 	0 6.23748 	-0.811939 	0 6.26495 	-0.884798 	0 6.2886 	-0.957119 	0 6.30872 	-1.02983 	0 6.30873 	-1.02987 	0 6.30874 	-1.02992 	0 6.30876 	-1.02997 	0 6.30877 	-1.03002 	0 6.30878 	-1.03007 	0 6.33258 	-1.12727 	0 6.35113 	-1.22236 	0 6.36455 	-1.31539 	0 6.37531 	-1.41409 	0 6.38859 	-1.5383 	0 6.4064 	-1.66405 	0 6.41795 	-1.78771 	0 6.40583 	-1.93023 	2.62124e-20 6.36947 	-2.0792 	5.37361e-20 6.31932 	-2.23398 	8.12387e-20 6.31111 	-2.28442 	2.3413e-20 6.29893 	-2.33174 	5.86914e-21 6.28258 	-2.37574 	3.12884e-20 6.26566 	-2.41949 	5.73276e-20 6.25133 	-2.45517 	7.91985e-20 6.22493 	-2.55105 	1.78981e-19 6.19659 	-2.64637 	2.82927e-19 6.16631 	-2.7411 	3.91009e-19 6.12014 	-2.82226 	2.74365e-19 6.06359 	-2.90262 	6.24953e-20 5.98362 	-3.02229 	4.92795e-20 5.89846 	-3.13898 	3.61918e-20 5.80159 	-3.23683 	8.5768e-21 5.70032 	-3.33274 	-1.80385e-20 5.62547 	-3.39924 	-3.61599e-20 5.61631 	-3.40855 	-3.59518e-20 5.60712 	-3.41786 	-3.57287e-20 5.59786 	-3.42652 	-3.68805e-20 5.58846 	-3.43348 	-4.16921e-20 5.57892 	-3.44051 	-4.65496e-20 5.45902 	-3.53672 	-2.8281e-20 5.33381 	-3.63098 	-9.43963e-21 5.20777 	-3.70792 	1.3031e-22 5.08154 	-3.76682 	-1.75577e-22 4.93262 	-3.83209 	7.98319e-23 4.93234 	-3.83224 	4.56838e-23 4.93207 	-3.83239 	1.15351e-23 4.93182 	-3.83249 	2.02508e-23 4.93158 	-3.83258 	5.08315e-23 4.93134 	-3.83266 	8.14229e-23 4.80565 	-3.88199 	1.13481e-21 4.67586 	-3.92973 	2.49251e-21 4.54896 	-3.96622 	4.22026e-21 4.43135 	-3.98331 	6.34511e-21 4.33603 	-3.99568 	8.21563e-21 4.30568 	-4.00335 	1.33655e-20 4.2751 	-4.01094 	1.85535e-20 4.24978 	-4.01265 	9.22723e-21 4.22458 	-4.01402 	-8.2878e-22 4.19827 	-4.01537 	-1.12553e-20 4.12448 	-4.02267 	-6.36116e-20 4.04951 	-4.02946 	-1.156e-19 3.9735 	-4.03556 	-1.6578e-19 3.90935 	-4.03003 	-1.01555e-19 3.85055 	-4.02465 	-4.30489e-20 3.77296 	-4.0268 	4.18572e-21 3.69546 	-4.02605 	4.20126e-20 3.62355 	-4.01393 	3.4213e-20 3.55056 	-4.00134 	2.66844e-20 3.4685 	-3.98684 	1.86556e-20 3.46518 	-3.98643 	1.9277e-20 3.46186 	-3.98601 	1.98987e-20 3.45854 	-3.98559 	2.05205e-20 3.45541 	-3.98488 	2.10423e-20 3.45236 	-3.98404 	2.1523e-20 3.38423 	-3.97201 	1.41283e-20 3.31403 	-3.95785 	7.42033e-21 3.24263 	-3.943 	7.06949e-22 3.17084 	-3.91594 	6.16565e-21 3.10321 	-3.88917 	1.23488e-20 3.06111 	-3.87915 	3.47293e-20 3.01869 	-3.86776 	5.06345e-20 2.97708 	-3.84878 	2.3362e-20 2.93505 	-3.82958 	-3.85357e-21 2.88983 	-3.80888 	-3.27921e-20 2.87172 	-3.80233 	-3.88912e-20 2.85353 	-3.79573 	-4.49926e-20 2.83526 	-3.78908 	-5.10961e-20 2.81707 	-3.78002 	-5.7285e-20 2.79916 	-3.77051 	-6.33927e-20 2.74576 	-3.74944 	-1.07117e-19 2.69153 	-3.72789 	-1.50962e-19 2.63673 	-3.69724 	-1.46196e-19 2.58232 	-3.65985 	-8.81914e-20 2.52979 	-3.62375 	-3.2714e-20 2.51285 	-3.61482 	2.076e-21 2.49587 	-3.60568 	3.52625e-20 2.47999 	-3.59328 	3.00054e-20 2.46404 	-3.58083 	2.47836e-20 2.44761 	-3.56801 	1.94615e-20 2.41708 	-3.54893 	5.65615e-20 2.3863 	-3.52966 	9.35822e-20 2.35525 	-3.51019 	1.30521e-19 2.32527 	-3.48569 	1.03442e-19 2.29588 	-3.46125 	7.23042e-20 2.25894 	-3.43555 	4.24478e-20 2.22155 	-3.40953 	1.2559e-20 2.18697 	-3.37666 	-2.91079e-21 2.15216 	-3.34345 	-1.81192e-20 2.11502 	-3.30811 	-3.42274e-20 2.11132 	-3.30525 	-3.18105e-20 2.10762 	-3.3024 	-2.93964e-20 2.10391 	-3.29954 	-2.69851e-20 2.10042 	-3.29612 	-3.40167e-20 2.09694 	-3.29269 	-4.13445e-20 2.06023 	-3.2604 	-1.64511e-19 2.0245 	-3.22607 	-2.56499e-19 1.98945 	-3.18996 	-2.99647e-19 1.95722 	-3.14907 	-1.93314e-19 1.92545 	-3.10884 	-8.89824e-20 1.91685 	-3.09915 	-7.78856e-20 1.90822 	-3.08944 	-6.67845e-20 1.90088 	-3.07859 	-5.65078e-20 1.89384 	-3.06748 	-4.64218e-20 1.88674 	-3.05628 	-3.62601e-20 1.86482 	-3.03091 	-1.17276e-20 1.84278 	-3.00543 	1.28263e-20 1.8212 	-2.97927 	2.99966e-20 1.80217 	-2.9503 	1.21661e-20 1.78328 	-2.92156 	-5.50105e-21 1.76989 	-2.9026 	-2.11226e-20 1.75647 	-2.8836 	-3.67324e-20 1.74522 	-2.86331 	-1.80978e-20 1.73492 	-2.8425 	1.47403e-20 1.72462 	-2.82165 	4.76847e-20 1.7123 	-2.80446 	1.21904e-20 1.69995 	-2.78725 	-2.32538e-20 1.68824 	-2.76957 	-3.4867e-20 1.67816 	-2.75072 	1.29976e-20 1.66813 	-2.73193 	6.07309e-20 1.6548 	-2.70772 	1.97505e-19 1.6415 	-2.68354 	3.34219e-19 1.63057 	-2.65859 	2.96414e-19 1.62142 	-2.63315 	1.33642e-19 1.6125 	-2.60811 	-2.78197e-20 1.6047 	-2.59476 	-5.73666e-20 1.5969 	-2.5814 	-8.69214e-20 1.58991 	-2.5677 	-8.97642e-20 1.58404 	-2.55355 	-5.62739e-20 1.57818 	-2.53939 	-2.27567e-20 1.56819 	-2.51487 	-2.4619e-20 1.55831 	-2.49045 	-2.6521e-20 1.55037 	-2.4659 	-1.93281e-20 1.54493 	-2.44121 	-4.97384e-22 1.53987 	-2.4174 	1.77522e-20 1.53322 	-2.40291 	2.97247e-20 1.5266 	-2.38845 	4.16926e-20 1.5213 	-2.37376 	4.57228e-20 1.51694 	-2.35893 	4.40993e-20 1.51262 	-2.34406 	4.24459e-20 1.50738 	-2.32433 	2.55684e-20 1.50228 	-2.30471 	8.66522e-21 1.49825 	-2.28529 	-3.13041e-21 1.4969 	-2.26625 	-1.11873e-21 1.4958 	-2.24809 	8.13818e-22 1.48883 	-2.22757 	7.62567e-20 1.48197 	-2.20715 	1.51927e-19 1.4777 	-2.18689 	1.25785e-19 1.47437 	-2.16679 	6.78052e-20 1.47115 	-2.1465 	8.99838e-21 1.46994 	-2.13596 	-2.33589e-20 1.4688 	-2.12547 	-5.56726e-20 1.46791 	-2.11515 	-8.19991e-20 1.46944 	-2.10626 	-3.64834e-20 1.47101 	-2.0977 	7.88479e-21 1.46388 	-2.06749 	4.60802e-21 1.45705 	-2.03755 	1.31346e-21 1.45628 	-2.01098 	-2.34556e-20 1.45685 	-1.98528 	-5.1731e-20 1.45946 	-1.96232 	-7.48575e-20 1.45899 	-1.96035 	-6.85092e-20 1.45851 	-1.95839 	-6.2216e-20 1.45846 	-1.95663 	-6.69676e-20 1.45842 	-1.95488 	-7.17169e-20 1.45837 	-1.95312 	-7.64766e-20 1.45649 	-1.9282 	-2.0948e-19 1.45499 	-1.90358 	-3.4175e-19 1.45422 	-1.87953 	-4.46517e-19 1.45847 	-1.85932 	-1.91164e-19 1.46283 	-1.84096 	4.70795e-20 1.46068 	-1.82605 	1.11184e-19 1.45865 	-1.81124 	1.75068e-19 1.45957 	-1.79855 	1.42355e-19 1.46062 	-1.78597 	1.09742e-19 1.46182 	-1.77314 	7.63098e-20 1.46275 	-1.76358 	6.73878e-20 1.46375 	-1.75408 	5.84878e-20 1.46484 	-1.74465 	4.96099e-20 1.46745 	-1.73648 	5.16812e-20 1.47012 	-1.72871 	5.41962e-20 1.4696 	-1.70545 	2.95069e-20 1.46944 	-1.68247 	4.75578e-21 1.47235 	-1.66191 	2.0225e-20 1.47696 	-1.64245 	4.53102e-20 1.4829 	-1.62535 	6.85405e-20 1.48288 	-1.62127 	6.74205e-20 1.48296 	-1.61727 	6.7585e-20 1.48355 	-1.61364 	7.51529e-20 1.48415 	-1.61003 	8.27188e-20 1.48478 	-1.60638 	9.03732e-20 1.48749 	-1.59065 	1.39733e-19 1.49046 	-1.57511 	1.8897e-19 1.4937 	-1.55978 	2.38082e-19 1.49887 	-1.54629 	1.68531e-19 1.50428 	-1.53411 	8.22757e-20 1.50594 	-1.51462 	1.55659e-19 1.50844 	-1.49585 	2.03773e-19 1.51306 	-1.47902 	1.6191e-19 1.51803 	-1.46246 	1.20579e-19 1.52373 	-1.44496 	7.67819e-20 1.52375 	-1.4449 	7.65574e-20 1.52378 	-1.44484 	7.6333e-20 1.5238 	-1.44478 	7.61087e-20 1.52382 	-1.44472 	7.64069e-20 1.52385 	-1.44467 	7.69342e-20 1.52826 	-1.42764 	1.26479e-19 1.53306 	-1.4109 	1.7452e-19 1.53824 	-1.39441 	2.2217e-19 1.545 	-1.37969 	1.8423e-19 1.5521 	-1.36677 	1.17103e-19 1.55543 	-1.34917 	2.03128e-19 1.55964 	-1.33245 	2.39639e-19 1.56529 	-1.31731 	1.74897e-19 1.57126 	-1.30241 	1.1037e-19 1.57762 	-1.28887 	3.78235e-20 1.57785 	-1.28786 	3.75691e-20 1.57812 	-1.28691 	3.673e-20 1.57845 	-1.28602 	3.51535e-20 1.57877 	-1.28512 	3.35767e-20 1.5791 	-1.28423 	3.19906e-20 1.58432 	-1.27029 	-1.34927e-20 1.58983 	-1.25655 	-5.88969e-20 1.59564 	-1.24301 	-1.04219e-19 1.60234 	-1.23067 	-8.93412e-20 1.60939 	-1.21995 	-3.0073e-20 1.61384 	-1.20443 	-7.54574e-20 1.6186 	-1.18912 	-1.21255e-19 1.62467 	-1.17574 	-1.03863e-19 1.63197 	-1.16308 	-6.09345e-20 1.64 	-1.1517 	3.29603e-22 1.64229 	-1.14486 	2.88307e-20 1.6449 	-1.13853 	2.83193e-20 1.64777 	-1.13256 	7.13119e-21 1.6507 	-1.12664 	-1.4006e-20 1.65383 	-1.12046 	-3.61465e-20 1.65747 	-1.11363 	-6.80418e-20 1.6612 	-1.10687 	-9.98256e-20 1.66501 	-1.10015 	-1.31497e-19 1.66905 	-1.09387 	-1.31059e-19 1.67329 	-1.0884 	-7.98804e-20 1.67843 	-1.07466 	-1.11917e-19 1.68446 	-1.0614 	-1.36094e-19 1.69179 	-1.049 	-1.45541e-19 1.69997 	-1.03839 	-1.35212e-19 1.70806 	-1.02842 	-1.25224e-19 1.71383 	-1.01491 	-2.75523e-19 1.7201 	-1.00221 	-3.5041e-19 1.72698 	-0.990774 	-2.96338e-19 1.73413 	-0.979494 	-2.42773e-19 1.74243 	-0.969419 	-1.16065e-19 1.74453 	-0.965074 	-8.24784e-20 1.74678 	-0.96118 	-8.4697e-20 1.74909 	-0.957421 	-9.65846e-20 1.75144 	-0.953679 	-1.08424e-19 1.75391 	-0.949793 	-1.20723e-19 1.75877 	-0.942443 	-1.2433e-19 1.76375 	-0.935158 	-1.2791e-19 1.76884 	-0.927941 	-1.31462e-19 1.77408 	-0.921013 	-1.29653e-19 1.77942 	-0.915251 	-1.0528e-19 1.78546 	-0.903319 	-1.3289e-19 1.79252 	-0.891963 	-1.44767e-19 1.80045 	-0.88111 	-1.4354e-19 1.80877 	-0.872042 	-1.02972e-19 1.81705 	-0.863511 	-6.09472e-20 1.82367 	-0.85182 	-1.64905e-19 1.83054 	-0.840293 	-2.67043e-19 1.8377 	-0.830601 	-2.25727e-19 1.84591 	-0.821495 	-1.27942e-19 1.8546 	-0.81305 	4.38562e-23 1.86121 	-0.80249 	1.42172e-22 1.86799 	-0.793563 	1.07549e-22 1.87496 	-0.784779 	6.88972e-23 1.88213 	-0.776096 	2.98166e-23 1.8905 	-0.766323 	-1.51709e-23 1.89088 	-0.765909 	7.04492e-22 1.89126 	-0.765496 	1.42369e-21 1.89163 	-0.765083 	2.14241e-21 1.89201 	-0.76467 	2.86067e-21 1.89238 	-0.764339 	4.19194e-22 1.89986 	-0.754885 	-2.52554e-20 1.90765 	-0.745601 	-4.7125e-20 1.91566 	-0.736429 	-6.88161e-20 1.9239 	-0.727378 	-8.98872e-20 1.9318 	-0.720391 	-3.12036e-20 1.93869 	-0.710434 	-2.11331e-20 1.94626 	-0.700918 	-1.39364e-20 1.95464 	-0.691934 	-1.0423e-20 1.96281 	-0.684662 	-1.59892e-20 1.97095 	-0.677794 	-2.24542e-20 1.97826 	-0.668087 	5.39363e-20 1.98579 	-0.658481 	1.30439e-19 1.99322 	-0.650393 	1.32357e-19 2.00153 	-0.643447 	6.57215e-20 2.00988 	-0.636704 	1.63284e-22 2.01758 	-0.627251 	9.7126e-23 2.02511 	-0.618874 	-1.11747e-20 2.03254 	-0.611333 	-3.10203e-20 2.04014 	-0.60387 	-5.08422e-20 2.04861 	-0.597232 	-6.38705e-20 2.05551 	-0.589524 	-1.06456e-19 2.06204 	-0.583012 	-1.10013e-19 2.06871 	-0.576557 	-1.13629e-19 2.07551 	-0.570159 	-1.17305e-19 2.08348 	-0.562876 	-1.21594e-19 2.08424 	-0.562212 	-1.22775e-19 2.085 	-0.561549 	-1.23956e-19 2.08577 	-0.560887 	-1.25136e-19 2.08653 	-0.560225 	-1.26315e-19 2.08723 	-0.559687 	-1.22316e-19 2.09469 	-0.552387 	-9.43349e-20 2.10239 	-0.545229 	-6.50917e-20 2.11025 	-0.53814 	-3.58864e-20 2.11829 	-0.53112 	-6.71914e-21 2.12556 	-0.525629 	1.79226e-22 2.13272 	-0.517863 	6.74852e-20 2.14054 	-0.510881 	8.638e-20 2.14855 	-0.503989 	1.03519e-19 2.15621 	-0.497911 	8.43368e-20 2.16322 	-0.492993 	1.49101e-20 2.17061 	-0.48547 	-5.5029e-20 2.17822 	-0.478096 	-1.18716e-19 2.18629 	-0.471454 	-1.34999e-19 2.1932 	-0.466589 	-6.72689e-20 2.20018 	-0.461808 	-7.25162e-23 2.20777 	-0.454528 	-3.96136e-23 2.21552 	-0.447306 	-6.88322e-24 2.22264 	-0.441441 	0 2.22948 	-0.436724 	0 2.23639 	-0.43208 	0 2.24414 	-0.425041 	0 2.25181 	-0.418323 	0 2.25831 	-0.413087 	0 2.26501 	-0.408311 	-1.01526e-20 2.27182 	-0.403806 	-2.51742e-20 2.2797 	-0.397007 	-6.23861e-21 2.28662 	-0.391369 	-6.35053e-21 2.29311 	-0.386318 	-1.58164e-20 2.29973 	-0.381332 	-2.67456e-20 2.30641 	-0.376964 	-6.64864e-20 2.31412 	-0.370651 	-2.84725e-20 2.32046 	-0.365749 	-3.0262e-20 2.32693 	-0.360881 	-3.20233e-20 2.33352 	-0.356046 	-3.37567e-20 2.34011 	-0.351528 	-4.64706e-20 2.34636 	-0.346664 	-3.6911e-20 2.35197 	-0.342447 	-3.83622e-20 2.35767 	-0.338255 	-3.97919e-20 2.36347 	-0.334087 	-4.12003e-20 2.37032 	-0.329265 	-4.28143e-20 2.37084 	-0.32891 	-4.26964e-20 2.37136 	-0.328556 	-4.25787e-20 2.37189 	-0.328202 	-4.24611e-20 2.37241 	-0.327848 	-4.23437e-20 2.37286 	-0.327548 	-4.25206e-20 2.37903 	-0.322957 	-4.9206e-20 2.38529 	-0.318421 	-5.37553e-20 2.39166 	-0.313913 	-5.82277e-20 2.39815 	-0.309432 	-6.26236e-20 2.40378 	-0.305704 	-3.89665e-20 2.41011 	-0.300988 	-7.51598e-20 2.41627 	-0.296628 	-8.72931e-20 2.42254 	-0.292292 	-9.93675e-20 2.42892 	-0.287982 	-1.11384e-19 2.43356 	-0.284995 	-7.13058e-20 2.44013 	-0.28021 	-1.18582e-19 2.44617 	-0.276023 	-1.21109e-19 2.45232 	-0.271859 	-1.23589e-19 2.4582 	-0.267954 	-1.18999e-19 2.46218 	-0.26539 	-7.53452e-20 2.46879 	-0.260773 	-1.17873e-19 2.47496 	-0.256567 	-1.28012e-19 2.48096 	-0.252571 	-1.22407e-19 2.48589 	-0.249309 	-9.47995e-20 2.48963 	-0.24685 	-4.31988e-20 2.49622 	-0.242437 	4.31572e-20 2.50261 	-0.238216 	1.03856e-19 2.50845 	-0.234387 	1.09352e-19 2.51243 	-0.231697 	5.03684e-20 2.51592 	-0.229342 	-2.66962e-20 2.52245 	-0.225127 	-1.75928e-20 2.5291 	-0.220932 	-8.4994e-21 2.53461 	-0.217347 	8.66903e-21 2.5378 	-0.215079 	2.59571e-20 2.54103 	-0.212825 	4.322e-20 2.54751 	-0.208806 	-4.3323e-20 2.55409 	-0.204803 	-1.29879e-19 2.55908 	-0.201582 	-1.41242e-19 2.562 	-0.199414 	-7.10814e-20 2.56497 	-0.197258 	-1.01948e-21 2.57137 	-0.193431 	-1.05851e-22 2.57788 	-0.189618 	7.86986e-22 2.58238 	-0.186732 	-1.5669e-20 2.58504 	-0.184663 	-4.94151e-20 2.58775 	-0.182604 	-8.31362e-20 2.59406 	-0.178963 	-4.7681e-20 2.60047 	-0.175336 	-1.22415e-20 2.60454 	-0.172759 	-8.54651e-21 2.60693 	-0.170786 	-2.59299e-20 2.60937 	-0.168822 	-4.32975e-20 2.61559 	-0.165364 	-2.59872e-20 2.62189 	-0.16192 	-8.7116e-21 2.6255 	-0.159642 	-9.45606e-21 2.62769 	-0.157745 	-2.60533e-20 2.62986 	-0.155873 	-4.33785e-20 2.63597 	-0.152593 	-1.64884e-19 2.64162 	-0.149538 	-2.61776e-19 2.64506 	-0.147378 	-2.57085e-19 2.64733 	-0.145499 	-1.64745e-19 2.64923 	-0.143718 	-4.33589e-20 2.65522 	-0.140611 	-2.59812e-20 2.66023 	-0.137903 	-8.62099e-21 2.66351 	-0.135859 	8.70878e-21 2.66586 	-0.134012 	2.13087e-20 2.6675 	-0.132319 	3.02506e-20 2.67337 	-0.129381 	9.13183e-20 2.67776 	-0.126983 	1.18684e-19 2.68087 	-0.125051 	1.1701e-19 2.68331 	-0.123248 	9.21102e-20 2.68469 	-0.121641 	3.16746e-20 2.69043 	-0.118866 	2.32328e-20 2.69423 	-0.116743 	1.48071e-20 2.69718 	-0.114919 	6.38655e-21 2.69971 	-0.11317 	0 2.70083 	-0.111646 	0 2.70644 	-0.10903 	0 2.70969 	-0.107151 	1.47214e-20 2.71247 	-0.105432 	3.25516e-20 2.71509 	-0.103744 	5.03667e-20 2.71596 	-0.102302 	6.81084e-20 2.72143 	-0.0998391 	1.90104e-19 2.72415 	-0.0981765 	1.93605e-19 2.72677 	-0.0965579 	1.91078e-19 2.72943 	-0.0949425 	1.88601e-19 2.7301 	-0.0935749 	7.02152e-20 2.73524 	-0.0913118 	5.32013e-20 2.73765 	-0.089788 	3.62405e-20 2.74011 	-0.0882669 	1.92715e-20 2.74261 	-0.0867486 	2.29443e-21 2.74329 	-0.0854323 	1.46969e-20 2.74797 	-0.083386 	-4.34543e-24 2.75023 	-0.0819564 	-2.98911e-23 2.75253 	-0.0805292 	-5.54267e-23 2.75486 	-0.0791045 	-8.09521e-23 2.75555 	-0.0778438 	6.38839e-21 2.75981 	-0.0759926 	-5.08006e-20 2.76192 	-0.0746537 	-4.95015e-20 2.76406 	-0.0733168 	-4.82298e-20 2.76624 	-0.071982 	-4.69855e-20 2.76693 	-0.0707801 	-5.64299e-21 2.7708 	-0.0691044 	8.55982e-23 2.77275 	-0.0678525 	6.04922e-23 2.77475 	-0.0666024 	3.53764e-23 2.77677 	-0.0653541 	1.0251e-23 2.77746 	-0.0642129 	0 2.78096 	-0.0626952 	1.11929e-20 2.78277 	-0.0615268 	3.75161e-20 2.78462 	-0.0603599 	6.38305e-20 2.7865 	-0.0591946 	9.01362e-20 2.78718 	-0.0581153 	1.075e-19 2.79034 	-0.0567399 	1.73089e-19 2.79202 	-0.0556514 	1.7201e-19 2.79372 	-0.0545642 	1.7096e-19 2.79546 	-0.0534783 	1.69937e-19 2.79612 	-0.0524615 	1.02491e-19 2.79898 	-0.0512142 	8.7582e-20 2.80052 	-0.0502022 	5.31487e-20 2.80209 	-0.0491912 	1.871e-20 2.80369 	-0.0481813 	-1.57341e-20 2.80433 	-0.0472266 	-4.6689e-20 2.8069 	-0.0460951 	-9.01978e-20 2.80832 	-0.0451559 	-8.899e-20 2.80976 	-0.0442177 	-8.78161e-20 2.81124 	-0.0432803 	-8.66759e-20 2.81184 	-0.0423872 	-3.70515e-20 2.81416 	-0.0413602 	-4.95286e-20 2.81545 	-0.0404905 	-3.17082e-20 2.81678 	-0.0396215 	-1.39056e-20 2.81812 	-0.0387533 	3.87916e-21 2.8187 	-0.0379204 	4.31036e-20 2.82078 	-0.0369881 	4.98651e-20 2.82196 	-0.0361844 	6.73359e-20 2.82316 	-0.0353813 	8.47985e-20 2.82439 	-0.0345789 	1.02253e-19 2.82493 	-0.0338049 	1.22067e-19 2.8268 	-0.0329583 	1.46219e-19 2.82787 	-0.0322172 	1.36997e-19 2.82897 	-0.0314768 	1.27796e-19 2.83008 	-0.0307368 	1.18616e-19 2.83057 	-0.0300197 	8.16893e-20 2.83226 	-0.029251 	5.8065e-20 2.83323 	-0.0285694 	3.2317e-20 2.83422 	-0.0278882 	6.56714e-21 2.83523 	-0.0272075 	-1.91846e-20 2.83567 	-0.0265453 	-4.10467e-20 2.83719 	-0.0258474 	-5.61557e-20 2.83806 	-0.025222 	-3.83822e-20 2.83895 	-0.0245969 	-2.06347e-20 2.83986 	-0.0239722 	-2.91325e-21 2.84024 	-0.0233627 	4.84812e-20 2.84162 	-0.0227294 	1.02306e-19 2.8424 	-0.022157 	1.09988e-19 2.8432 	-0.0215849 	1.17712e-19 2.84402 	-0.021013 	1.2548e-19 2.84434 	-0.0204538 	8.86204e-20 2.84559 	-0.0198796 	7.17994e-20 2.84629 	-0.0193571 	6.32557e-20 2.84701 	-0.0188349 	5.47079e-20 2.84774 	-0.0183129 	4.6156e-20 2.84799 	-0.0178015 	3.76067e-20 2.84913 	-0.0172813 	1.44123e-20 2.84976 	-0.0168057 	1.47596e-20 2.85039 	-0.0163304 	1.50842e-20 2.85104 	-0.0158553 	1.53862e-20 2.85122 	-0.0153892 	4.14743e-20 2.85228 	-0.0149185 	3.98577e-20 2.8