# vtk DataFile Version 2.0
track0
ASCII
DATASET POLYDATA
POINTS 12278 float
-0.0205 0.001 1e-05
-0.02052 0.000999216 1e-05
-0.02054 0.000998592 1e-05
-0.02056 0.000998126 1e-05
-0.02058 0.000997818 1e-05
-0.0206 0.000997665 1e-05
-0.0205 0.00367778 1e-05
-0.02052 0.00367703 1e-05
-0.02054 0.00367643 1e-05
-0.02056 0.00367599 1e-05
-0.02058 0.00367569 1e-05
-0.0206 0.00367554 1e-05
-0.0205 0.00635556 1e-05
-0.02052 0.00635527 1e-05
-0.02054 0.00635505 1e-05
-0.02056 0.00635488 1e-05
-0.02058 0.00635476 1e-05
-0.0206 0.00635471 1e-05
-0.0205 0.00903333 1e-05
-0.02052 0.00903311 1e-05
-0.02054 0.00903293 1e-05
-0.02056 0.0090328 1e-05
-0.02058 0.00903271 1e-05
-0.0206 0.00903266 1e-05
-0.0205 0.0117111 1e-05
-0.02052 0.0117111 1e-05
-0.02054 0.011711 1e-05
-0.02056 0.011711 1e-05
-0.02058 0.011711 1e-05
-0.0206 0.011711 1e-05
-0.0205 0.0143889 1e-05
-0.02052 0.014389 1e-05
-0.02054 0.014389 1e-05
-0.02056 0.0143891 1e-05
-0.02058 0.0143891 1e-05
-0.0206 0.0143891 1e-05
-0.0205 0.0170667 1e-05
-0.02052 0.017067 1e-05
-0.02054 0.0170672 1e-05
-0.02056 0.0170674 1e-05
-0.02058 0.0170675 1e-05
-0.0206 0.0170676 1e-05
-0.0205 0.0197444 1e-05
-0.02052 0.019745 1e-05
-0.02054 0.0197454 1e-05
-0.02056 0.0197457 1e-05
-0.02058 0.0197459 1e-05
-0.0206 0.019746 1e-05
-0.0205 0.0224222 1e-05
-0.02052 0.022423 1e-05
-0.02054 0.0224236 1e-05
-0.02056 0.0224241 1e-05
-0.02058 0.0224244 1e-05
-0.0206 0.0224245 1e-05
-0.0205 0.0251 1e-05
-0.02052 0.0251003 1e-05
-0.02054 0.0251005 1e-05
-0.02056 0.0251007 1e-05
-0.02058 0.0251008 1e-05
-0.0206 0.0251008 1e-05
-0.0205 0.001 1e-05
-0.0203632 0.00100536 1e-05
-0.0202266 0.00101331 1e-05
-0.0200901 0.00102296 1e-05
-0.0200427 0.00102682 1e-05
-0.0198376 0.00104418 1e-05
-0.0196338 0.00107322 1e-05
-0.0194327 0.00111734 1e-05
-0.0192367 0.00118024 1e-05
-0.0190172 0.00124951 1e-05
-0.0189002 0.00128348 1e-05
-0.0187827 0.00131598 1e-05
-0.0186649 0.001347 1e-05
-0.0185468 0.001377 1e-05
-0.0183807 0.00141936 1e-05
-0.0182041 0.00146458 1e-05
-0.0180267 0.00150692 1e-05
-0.0178487 0.00154639 1e-05
-0.0176703 0.00158389 1e-05
-0.0174976 0.0016199 1e-05
-0.0172846 0.00166393 1e-05
-0.0170715 0.00170741 1e-05
-0.0168583 0.00175029 1e-05
-0.0166448 0.00179219 1e-05
-0.0163944 0.00184007 1e-05
-0.0163233 0.00185323 1e-05
-0.0162521 0.00186628 1e-05
-0.0161809 0.0018792 1e-05
-0.0161097 0.00189199 1e-05
-0.0160387 0.00190458 1e-05
-0.0157586 0.00195347 1e-05
-0.0154779 0.00199928 1e-05
-0.0151968 0.00204222 1e-05
-0.0149154 0.0020828 1e-05
-0.0146381 0.0021213 1e-05
-0.0143837 0.00215524 1e-05
-0.0141292 0.00218763 1e-05
-0.0138745 0.00221853 1e-05
-0.0136196 0.00224796 1e-05
-0.0132934 0.00228365 1e-05
-0.013279 0.00228511 1e-05
-0.0132646 0.00228658 1e-05
-0.0132502 0.00228803 1e-05
-0.0132358 0.00228949 1e-05
-0.013221 0.00229098 1e-05
-0.0129773 0.00231543 1e-05
-0.0127335 0.00233864 1e-05
-0.0124895 0.00236059 1e-05
-0.0122455 0.00238127 1e-05
-0.0120025 0.00240055 1e-05
-0.0117547 0.00241907 1e-05
-0.0115067 0.00243626 1e-05
-0.0112587 0.00245231 1e-05
-0.0110106 0.00246735 1e-05
-0.0107632 0.00248137 1e-05
-0.0105252 0.00249394 1e-05
-0.0102872 0.00250551 1e-05
-0.0100491 0.00251608 1e-05
-0.00981105 0.00252582 1e-05
-0.00957337 0.00253481 1e-05
-0.00934491 0.00254272 1e-05
-0.00911643 0.00254987 1e-05
-0.00888792 0.00255626 1e-05
-0.0086594 0.0025619 1e-05
-0.00843108 0.0025669 1e-05
-0.00821175 0.00257109 1e-05
-0.00799241 0.00257466 1e-05
-0.00777306 0.00257761 1e-05
-0.0075537 0.00257986 1e-05
-0.00733443 0.00258152 1e-05
-0.00712387 0.00258254 1e-05
-0.0069133 0.00258302 1e-05
-0.00670273 0.00258293 1e-05
-0.00649216 0.00258217 1e-05
-0.0062816 0.00258078 1e-05
-0.00607944 0.00257884 1e-05
-0.0058773 0.00257636 1e-05
-0.00567516 0.00257333 1e-05
-0.00547303 0.00256956 1e-05
-0.00527083 0.00256507 1e-05
-0.00507675 0.00256007 1e-05
-0.00488269 0.00255444 1e-05
-0.00468865 0.00254819 1e-05
-0.00449464 0.00254112 1e-05
-0.00430044 0.00253313 1e-05
-0.00411412 0.00252459 1e-05
-0.00392783 0.00251526 1e-05
-0.00374159 0.00250514 1e-05
-0.0035554 0.00249409 1e-05
-0.00336883 0.00248178 1e-05
-0.00318995 0.00246883 1e-05
-0.00301115 0.0024548 1e-05
-0.00283244 0.00243965 1e-05
-0.00265385 0.00242321 1e-05
-0.00247443 0.00240525 1e-05
-0.0023027 0.00238646 1e-05
-0.00213114 0.00236615 1e-05
-0.00195982 0.00234397 1e-05
-0.00178874 0.00231993 1e-05
-0.00161577 0.00229373 1e-05
-0.00161238 0.00229318 1e-05
-0.001609 0.00229263 1e-05
-0.00160561 0.00229208 1e-05
-0.00160222 0.00229152 1e-05
-0.0015989 0.00229098 1e-05
-0.0014374 0.00226446 1e-05
-0.00127629 0.00223568 1e-05
-0.00111559 0.00220471 1e-05
-0.000955318 0.0021716 1e-05
-0.000791418 0.00213531 1e-05
-0.000633135 0.00209732 1e-05
-0.000475553 0.00205651 1e-05
-0.000318711 0.00201295 1e-05
-0.000162812 0.00196613 1e-05
0 0.00191314 1e-05
3.93925e-05 0.00189925 1e-05
7.8674e-05 0.00188506 1e-05
0.000117846 0.00187056 1e-05
0.00015691 0.00185577 1e-05
0.000188499 0.00184355 1e-05
0.000256477 0.00181678 1e-05
0.000324064 0.00178904 1e-05
0.000391249 0.00176034 1e-05
0.000458017 0.00173068 1e-05
0.000528387 0.00169828 1e-05
0.000634886 0.00164743 1e-05
0.000740281 0.00159434 1e-05
0.000844515 0.001539 1e-05
0.000947631 0.0014816 1e-05
0.00102784 0.0014348 1e-05
0.00103445 0.00143081 1e-05
0.00104105 0.0014268 1e-05
0.00104765 0.00142278 1e-05
0.00105424 0.00141875 1e-05
0.00106088 0.00141467 1e-05
0.00116821 0.00134865 1e-05
0.00127404 0.00128025 1e-05
0.00137828 0.00120946 1e-05
0.001481 0.00113647 1e-05
0.00159752 0.00105028 1e-05
0.00159883 0.00104926 1e-05
0.00160014 0.00104825 1e-05
0.00160145 0.00104723 1e-05
0.00160276 0.00104621 1e-05
0.00160407 0.00104519 1e-05
0.00169885 0.00097149 1e-05
0.00179221 0.000896 1e-05
0.00188408 0.0008187 1e-05
0.00197453 0.000739748 1e-05
0.00204489 0.00067642 1e-05
0.00206358 0.000659173 1e-05
0.00208219 0.000641849 1e-05
0.00210073 0.000624445 1e-05
0.00211922 0.000606987 1e-05
0.00213833 0.000588845 1e-05
0.00219285 0.000536741 1e-05
0.00224685 0.000484089 1e-05
0.0023003 0.000430882 1e-05
0.00235318 0.000377114 1e-05
0.00240048 0.00032828 1e-05
0.00245705 0.000269028 1e-05
0.00251301 0.000209197 1e-05
0.00256836 0.000148803 1e-05
0.00262321 8.79574e-05 1e-05
0.00268334 2.0121e-05 1e-05
0.00268684 1.60968e-05 1e-05
0.00269033 1.20704e-05 1e-05
0.00269382 8.04176e-06 1e-05
0.00269731 4.01089e-06 1e-05
0.00270078 0 1e-05
0.00276449 -7.37394e-05 1e-05
0.00282758 -0.000148018 1e-05
0.00289001 -0.000222841 1e-05
0.00295178 -0.000298222 1e-05
0.00300859 -0.000368667 1e-05
0.00305339 -0.000425047 1e-05
0.00309789 -0.000481668 1e-05
0.00314208 -0.000538526 1e-05
0.00318602 -0.000595576 1e-05
0.00323259 -0.000656602 1e-05
0.00325125 -0.000681304 1e-05
0.00326985 -0.000706049 1e-05
0.00328839 -0.000730838 1e-05
0.00330688 -0.00075567 1e-05
0.00332499 -0.000780106 1e-05
0.00339273 -0.000871892 1e-05
0.00345987 -0.000964128 1e-05
0.00352636 -0.00105683 1e-05
0.00359229 -0.00114992 1e-05
0.00365466 -0.00123896 1e-05
0.00368095 -0.00127692 1e-05
0.00370716 -0.00131492 1e-05
0.00373329 -0.00135298 1e-05
0.00375937 -0.00139108 1e-05
0.00378611 -0.00143026 1e-05
0.00382966 -0.0014943 1e-05
0.00387299 -0.00155849 1e-05
0.00391608 -0.00162283 1e-05
0.00395895 -0.00168732 1e-05
0.00400062 -0.00175041 1e-05
0.00406928 -0.00185499 1e-05
0.0041375 -0.00195985 1e-05
0.00420524 -0.00206502 1e-05
0.00427267 -0.00217039 1e-05
0.00434393 -0.00228253 1e-05
0.00434869 -0.00229007 1e-05
0.00435344 -0.00229761 1e-05
0.00435819 -0.00230515 1e-05
0.00436294 -0.0023127 1e-05
0.00436767 -0.00232023 1e-05
0.00444747 -0.00244716 1e-05
0.0045268 -0.00257438 1e-05
0.0046057 -0.00270188 1e-05
0.0046842 -0.00282961 1e-05
0.00476083 -0.00295481 1e-05
0.00478989 -0.00300248 1e-05
0.0048189 -0.00305016 1e-05
0.00484788 -0.00309787 1e-05
0.00487684 -0.00314559 1e-05
0.00490609 -0.00319379 1e-05
0.00496282 -0.0032873 1e-05
0.00501939 -0.0033809 1e-05
0.00507581 -0.0034746 1e-05
0.00513209 -0.00356839 1e-05
0.00518779 -0.00366132 1e-05
0.00524476 -0.00375648 1e-05
0.00530166 -0.00385167 1e-05
0.00535849 -0.00394691 1e-05
0.00541533 -0.00404213 1e-05
0.00547262 -0.004138 1e-05
0.00550967 -0.00419993 1e-05
0.00554668 -0.00426189 1e-05
0.00558366 -0.00432386 1e-05
0.00562062 -0.00438585 1e-05
0.00565749 -0.00444766 1e-05
0.0057347 -0.00457704 1e-05
0.00581194 -0.00470642 1e-05
0.0058892 -0.00483578 1e-05
0.0059666 -0.00496505 1e-05
0.00604356 -0.00509309 1e-05
0.00607125 -0.00513899 1e-05
0.00609895 -0.00518489 1e-05
0.00612665 -0.00523079 1e-05
0.00615435 -0.00527668 1e-05
0.00618211 -0.00532258 1e-05
0.00626947 -0.00546692 1e-05
0.00635704 -0.00561112 1e-05
0.00644483 -0.0057552 1e-05
0.00653294 -0.00589908 1e-05
0.00661893 -0.00603851 1e-05
0.00665089 -0.00608996 1e-05
0.00668287 -0.0061414 1e-05
0.00671487 -0.00619282 1e-05
0.00674692 -0.00624421 1e-05
0.00677915 -0.00629577 1e-05
0.00686307 -0.00642972 1e-05
0.00694734 -0.00656345 1e-05
0.00703195 -0.00669696 1e-05
0.00711696 -0.00683021 1e-05
0.00719878 -0.00695733 1e-05
0.00725337 -0.00704143 1e-05
0.0073081 -0.00712545 1e-05
0.00736296 -0.00720937 1e-05
0.007418 -0.00729318 1e-05
0.00747393 -0.00737786 1e-05
0.00753577 -0.00747099 1e-05
0.00759785 -0.00756395 1e-05
0.00766018 -0.00765675 1e-05
0.00772276 -0.00774938 1e-05
0.00778313 -0.00783808 1e-05
0.00788489 -0.00798652 1e-05
0.00798724 -0.00813455 1e-05
0.00809019 -0.00828216 1e-05
0.00819393 -0.00842922 1e-05
0.00830185 -0.0085804 1e-05
0.00831589 -0.00859982 1e-05
0.00832994 -0.00861923 1e-05
0.008344 -0.00863864 1e-05
0.00835808 -0.00865803 1e-05
0.00837203 -0.00867721 1e-05
0.00849073 -0.00884016 1e-05
0.00861035 -0.00900242 1e-05
0.00873096 -0.00916395 1e-05
0.00885266 -0.00932466 1e-05
0.00896551 -0.00947142 1e-05
0.00900315 -0.00951965 1e-05
0.00904088 -0.00956782 1e-05
0.0090787 -0.0096159 1e-05
0.00911663 -0.00966391 1e-05
0.00915531 -0.00971262 1e-05
0.00923697 -0.00981498 1e-05
0.0093191 -0.00991695 1e-05
0.00940172 -0.0100185 1e-05
0.00948482 -0.0101197 1e-05
0.0095636 -0.0102147 1e-05
0.00966914 -0.0103406 1e-05
[...]
POINT_DATA 12278
 FIELD attributes 2
p 1 12278 float
177282 177364 177436 177499 177553 177598
109215 109234 109250 109264 109276 109287
88022.9 88032.5 88041.8 88051 88060 88068.4
80206.4 80212.7 80218.9 80225.1 80231.1 80237.1
77416.6 77425.8 77435.1 77444.3 77453.5 77462.7
77835.1 77848.6 77862.2 77875.8 77889.3 77902.9
81369.3 81381.7 81394 81406.1 81418 81429.8
91196.7 91216.5 91235.5 91253.8 91271.4 91288.3
117629 117662 117692 117721 117747 117770
215748 215558 215366 215172 214976 214778
177282 173676 169349 164771 163105 159173 155790 153140 144974 134933 129491 124062 120123 119513 118661 112615 106716 102595 101699 100832 99849.9 98867.6 97440.8 95972.3 94256.4 93890 93523.1 93155.6 92674.7 92177.1 90257.5 88453.6 86939.3 86151.8 85374.9 84688.8 84023.8 83373.6 82721.5 81888.1 81852.9 81823.9 81795.7 81767.4 81738.5 81205.7 80673.4 80141.5 79610.2 79185.1 78758.7 78349.3 77951.4 77575.5 77209.3 76859.1 76508.6 76184.6 75882.9 75581.6 75291.8 75001.9 74723.1 74460 74197.1 73943.1 73689.1 73438.8 73202.3 72966 72736.7 72507.5 72276.7 72056.9 71837.4 71623.5 71409.6 71190.6 70979.5 70768.6 70561.1 70353.9 70140.5 69927.9 69715.5 69503.3 69291.7 69076 68847.9 68620.1 68387.1 68151.6 67907.4 67654.2 67388.4 67108.9 66795.5 66483.6 66173.3 65859.7 65852.3 65843.5 65834.5 65825.6 65816.8 65434.3 65057.3 64685.6 64295.8 63826.2 63311.6 62802.8 62110.2 61338.7 60528.4 60267.4 60017.3 59778.6 59540.5 59347.9 58807.5 58265.1 57720.7 57261.6 56807.8 56205.2 55602.3 55064.2 54524.8 54099.5 54052.7 54005.9 53961.4 53923.1 53884.5 53333.4 52775.2 52256.3 51785.7 51238.4 51232.6 51226.8 51221.5 51216.8 51212.2 50786.2 50351.8 49952.8 49617.2 49348.4 49256 49163.3 49097.4 49032.5 48965.1 48772.1 48576.7 48379.4 48231.2 48096 47926.7 47761.5 47624.5 47485.5 47329.5 47320.1 47310.6 47301.1 47292.6 47284.4 47180.7 47067.8 46952.5 46838.7 46731.3 46695.6 46658.8 46619.2 46578.9 46535.1 46514 46492.7 46471.2 46448.9 46426.8 46400.2 46372.3 46334.2 46290.6 46247.8 46249.6 46251.1 46249.8 46248.3 46246.7 46234.5 46221.8 46208.8 46192.8 46176.6 46184.9 46192.4 46195.1 46197.3 46199 46198.2 46197.4 46196.6 46195.7 46194.7 46206.3 46217.8 46228.4 46236.9 46245 46255.5 46266 46275.9 46285.8 46295.7 46305.1 46314.4 46323.5 46332.4 46341.2 46359.7 46378.2 46396.6 46415.1 46433.8 46440.3 46446.8 46453.4 46460.4 46467.4 46490.3 46513.3 46537 46561.1 46585.3 46590.3 46595.4 46600.8 46606.5 46612.2 46636.3 46660.5 46685.7 46712 46737.9 46743.8 46749.7 46756.2 46763 46769.9 46791.5 46813.2 46835.8 46860 46883.5 46893.4 46903.4 46914.6 46926.4 46938.4 46953.3 46968.2 46983.4 47000 47016 47033.8 47051.7 47072.7 47094.2 47116.6 47119.7 47122.8 47126 47129.3 47132.6 47152.8 47173.9 47196.6 47221.2 47244.1 47249.3 47254.5 47260.6 47266.7 47273 47286.9 47301 47315.2 47330.6 47345.1 47359.4 47374 47390.2 47406.5 47424 47425.9 47427.9 47429.8 47431.9 47433.9 47449.9 47466.8 47483.9 47502.6 47519.9 47528.8 47537.9 47547.8 47557.9 47568.5 47573.8 47579.2 47584.5 47590.2 47595.8 47609 47622.4 47637 47652.8 47667.5 47675.1 47683.1 47691.8 47700.5 47709.7 47714.1 47718.4 47722.7 47727.3 47732 47743.1 47754.9 47767.1 47780.6 47793.3 47803 47813.4 47824.5 47835.6 47846.9 47847.1 47847.3 47847.5 47847.7 47847.9 47858 47868.1 47878.2 47888.8 47899.6 47907.9 47916.2 47925.5 47935.9 47945.8 47951.6 47958.2 47965 47971.9 47979.5 47980.8 47982.2 47983.6 47985 47986.5 47993.8 48001.3 48008.8 48016.8 48025.2 48030.8 48036.4 48043 48050.5 48057.8 48062.2 48067.3 48072.9 48078.5 48084.4 48085.7 48087.5 48089.2 48091 48092.9 48095.7 48098.4 48101.1 48103.9 48107.2 48110.1 48113.6 48117 48121 48125.4 48127 48128.6 48131 48134.3 48137.5 48137.9 48138.5 48139.9 48141.5 48143.5 48142.8 48142.9 48143 48143.1 48143.4 48142.9 48142.6 48142.3 48142 48141.7 48141 48140.4 48139.7 48139.1 48138.8 48136.2 48134.1 48132 48130 48128.6 48124.6 48120.9 48117.6 48114.8 48112.2 48107 48101.8 48097.3 48093.5 48089.6 48083.3 48077 48071.2 48066 48061 48053.5 48046.4 48039.5 48032.7 48026.4 48017.9 48009.8 48001.8 47993.7 47986 47976.6 47967.4 47958.3 47949.1 47939.9 47937.7 47935.5 47933.3 47931.1 47928.9 47920.9 47912.9 47904.9 47896.9 47889 47877.5 47866.3 47855.1 47843.8 47832.7 47820 47807.8 47795.5 47783.2 47771.2 47757.4 47744 47730.7 47717.5 47704.5 47689.8 47675.3 47661 47646.9 47632.9 47617.3 47601.7 47586.6 47571.5 47556.5 47540.1 47523.6 47507.5 47491.6 47475.7 47458.4 47441.2 47424.1 47407.3 47390.5 47372.5 47354.5 47336.6 47318.9 47301.3 47282.6 47263.8 47245 47226.6 47208.2 47188.8 47169.3 47149.8 47130.6 47111.4 47091.3 47071.2 47051 47031 47011.1 46990.4 46969.6 46948.8 46928.1 46907.6 46886.2 46864.9 46843.4 46822 46800.9 46779 46757 46735 46713 46691.3 46668.9 46646.4 46623.8 46601.3 46579 46556.1 46533 46510 46486.9 46464 46440.6 46417.1 46393.6 46370.1 46346.7 46322.8 46298.9 46274.9 46250.9 46227 46202.8 46178.4 46154 46129.6 46105.3 46080.6 46055.8 46031 46006.2 45981.5 45956.5 45931.3 45906.1 45881 45855.9 45830.4 45804.9 45779.4 45753.9 45728.5 45702.7 45676.9 45651 45625.2 45599.4 45573.3 45547.2 45521 45494.9 45468.8 45442.4 45416 45389.5 45363.1 45336.7 45310 45283.3 45256.6 45229.9 45203.2 45176.3 45149.3 45122.4 45095.4 45068.4 45041.3 45014.1 44986.9 44959.7 44932.4 44905 44877.6 44850.2 44822.7 44795.3 44767.6 44740 44712.3 44684.6 44657 44629.1 44601.3 44573.4 44545.5 44517.6 44489.6 44461.5 44433.4 44405.3 44377.3 44349 44320.7 44292.5 44264.2 44235.9 44207.5 44179 44150.5 44122.1 44093.6 44065 44036.3 44007.7 43979 43950.4 43921.6 43892.7 43863.9 43835.1 43806.3 43777.3 43748.3 43719.3 43690.3 43661.3 43632.1 43602.9 43573.8 43544.6 43515.4 43486.1 43456.8 43427.4 43398.1 43368.7 43339.2 43309.7 43280.2 43250.7 43221.2 43191.5 43161.8 43132.2 43102.5 43072.8 43043 43013.1 42983.3 42953.4 42923.6 42893.6 42863.6 42833.6 42803.6 42773.5 42743.4 42713.2 42683 42652.9 42622.7 42592.3 42562 42531.6 42501.3 42470.9 42440.5 42409.9 42379.4 42348.9 42318.4 42287.7 42257 42226.3 42195.7 42164.9 42134.1 42103.3 42072.4 42041.5 42010.7 41979.7 41948.6 41917.6 41886.5 41855.5 41824.3 41793.1 41761.9 41730.7 41699.4 41668.1 41636.7 41605.3 41573.9 41542.4 41510.9 41479.3 41447.7 41416.2 41384.6 41352.8 41321.1 41289.3 41257.5 41225.7 41193.8 41161.8 41129.9 41097.9 41065.9 41033.8 41001.7 40969.5 40937.4 40905.2 40872.9 40840.5 40808.2 40775.8 40743.4 40710.9 40678.4 40645.8 40613.3 40580.7 40547.9 40515.2 40482.4 40449.7 40416.9 40383.9 40351 40318 40285 40252 40218.9 40185.7 40152.5 40119.4 40086.1 40052.8 40019.4 39986 39952.6 39919.1 39885.6 39852 39818.3 39784.7 39751 39717.3 39683.4 39649.6 39615.7 39581.8 39547.8 39513.7 39479.7 39445.6 39411.4 39377.2 39342.9 39308.6 39274.3 39239.9 39205.4 39170.9 39136.4 39101.8 39067.2 39032.5 38997.7 38962.9 38928.1 38893.3 38858.3 38823.3 38788.3 38753.3 38718.1 38682.9 38647.7 38612.4 38577.1 38541.8 38506.3 38470.8 38435.3 38399.7 38364.1 38328.4 38292.7 38256.9 38221.1 38185.2 38149.3 38113.2 38077.2 38041.1 38005 37968.8 37932.5 37896.2 37859.9 37823.5 37787 37750.4 37713.9 37677.3 37640.6 37603.9 37567.1 37530.2 37493.4 37456.4 37419.4 37382.3 37345.2 37308.1 37270.9 37233.6 37196.2 37158.8 37121.4 37083.9 37046.3 37008.7 36971 36933.3 36895.6 36857.7 36819.8 36781.8 36743.9 36705.8 36667.7 36629.5 36591.2 36553 36514.6 36476.2 36437.7 36399.2 36360.6 36322 36283.3 36244.5 36205.7 36166.8 36127.9 36088.9 36049.8 36010.7 35971.5 35932.3 35893 35853.6 35814.2 35774.8 35735.3 35695.6 35656 35616.2 35576.5 35536.7 35496.8 35456.8 35416.8 35376.7 35336.6 35296.3 35256.1 35215.7 35175.4 35135 35094.4 35053.8 35013.2 34972.5 34931.8 34890.9 34850 34809.1 34768 34727 34685.8 34644.6 34603.4 34562 34520.7 34479.2 34437.6 34396.1 34354.4 34312.8 34270.9 34229.1 34187.2 34145.2 34103.2 34061.1 34018.9 33976.7 33934.4 33892.1 33849.6 33807.1 33764.5 33721.9 33679.3 33636.4 33593.6 33550.7 33507.8 33464.8 33421.7 33378.5 33335.3 33292 33248.7 33205.2 33161.7 33118.2 33074.5 33030.9 32987.1 32943.3 32899.4 32855.4 32811.4 32767.3 32723.1 32678.9 32634.5 32590.2 32545.7 32501.2 32456.6 32412 32367.3 32322.5 32277.6 32232.7 32187.7 32142.7 32097.5 32052.3 32007 31961.6 31916.3 31870.7 31825.2 31779.5 31733.8 31688.1 31642.2 31596.3 31550.3 31504.2 31458.2 31411.9 31365.6 31319.3 31272.9 31226.4 31179.8 31133.2 31086.5 31039.7 30992.9 30945.9 30898.9 30851.9 30804.7 30757.6 30710.2 30662.8 30615.4 30567.9 30520.4 30472.6 30424.9 30377.1 30329.2 30281.3 30233.2 30185.1 30136.9 30088.7 30040.4 29991.9 29943.5 29894.9 29846.3 29797.6 29748.8 29699.9 29651 29602 29552.9 29503.7 29454.5 29405.1 29355.7 29306.3 29256.7 29207.1 29157.4 29107.6 29057.8 29007.8 28957.8 28907.7 28857.5 28807.3 28756.9 28706.5 28656 28605.4 28554.8 28504 28453.2 28402.3 28351.3 28300.4 28249.1 28197.9 28146.6 28095.3 28043.9 27992.2 27940.6 27888.9 27837.1 27785.3 27733.3 27681.3 27629.2 27577 27524.8 27472.3 27419.8 27367.3 27314.7 27262.1 27209.2 27156.3 27103.4 27050.3 26997.3 26944 26890.7 26837.3 26783.9 26730.4 26676.7 26622.9 26569.2 26515.3 26461.4 26407.2 26353.1 26298.9 26244.6 26190.3 26135.7 26081.1 26026.5 25971.8 25917.1 25862.2 25807.2 25752.2 25697.1 25642.1 25586.7 25531.4 25476 25420.7 25365.2 25309.6 25254 25198.4 25142.7 25087.1 25031.2 24975.4 24919.7 24863.9 24808.2 24752.3 24696.5 24640.8 24585.2 24529.5 24473.8 24418.5 24363.4 24308.3 24253.6 24198.9 24144 24089 24034 23978.6 23923.9 23875.2 23826.6 23778 23734.2 23684.9 23619.6 23554.1 23488.6 23414.2 23363.3 23332.9 23302.8 23273 23260.1 23255.6 23251.1 23246.6 23242 23240.3 23237.5 23231.8 23226.1 23220.4 23214.1 23187.5 23160.6 23133.6 23106.2 23063.2 22987.5 22918.5 22849.6 22780.7 22724.3 22673.1 22616.8 22560.5 22504.1 22441.4 22373.7 22305.6 22237.5 22169.4 22100.9 22029.6 21956.4 21883.2 21809.9 21734.6 21656.3 21576.6 21496.8 21416.9 21335.5 21251.3 21165.1 21079 20992.8 20904.8 20813.8 20720.9 20627.9 20534.9 20440.1 20342 20241.8 20141.5 20041.1 19938.8 19832.9 19724.7 19616.3 19507.9 19397.5 19283.1 19166.1 19048.8 18931.5 18811.7 18687.7 18560.9 18434 18307 18177.6 18043.5 17905.5 17767.4 17629 17487.1 17340.2 17190.4 17040.6 16890.6 16738.3 16580.5 16416 16251 16085.8 15914.3 15736.5 15558.4 15380.2 15202 15024 14839.3 14639.8 14439.4 14238.3 14023.1 13799.8 13586.7 13374.2 13162.2 12960.9 12752 12504.5 12254.7 12002.8 11713.5 11413.3 11158 10905.5 10655.7 10450.9 10238.3 9922.24 9598.65 9266.56 8833.85 8384.84 8072.17 7774.54 7494.85 7349.75 7198.72 6802.07 6357.6 5839.46 5090.04 4311.71 3779.62 3398.67 3251.26 3317.02 3383.36 3362.49 2777.5 1388.34 0