# vtk DataFile Version 2.0
track0
ASCII
DATASET POLYDATA
POINTS 12278 float
-0.0205 0.001 1e-05
-0.02052 0.000999216 1e-05
-0.02054 0.000998592 1e-05
-0.02056 0.000998126 1e-05
-0.02058 0.000997818 1e-05
-0.0206 0.000997665 1e-05
-0.0205 0.00367778 1e-05
-0.02052 0.00367703 1e-05
-0.02054 0.00367643 1e-05
-0.02056 0.00367599 1e-05
-0.02058 0.00367569 1e-05
-0.0206 0.00367554 1e-05
-0.0205 0.00635556 1e-05
-0.02052 0.00635527 1e-05
-0.02054 0.00635505 1e-05
-0.02056 0.00635488 1e-05
-0.02058 0.00635476 1e-05
-0.0206 0.00635471 1e-05
-0.0205 0.00903333 1e-05
-0.02052 0.00903311 1e-05
-0.02054 0.00903293 1e-05
-0.02056 0.0090328 1e-05
-0.02058 0.00903271 1e-05
-0.0206 0.00903266 1e-05
-0.0205 0.0117111 1e-05
-0.02052 0.0117111 1e-05
-0.02054 0.011711 1e-05
-0.02056 0.011711 1e-05
-0.02058 0.011711 1e-05
-0.0206 0.011711 1e-05
-0.0205 0.0143889 1e-05
-0.02052 0.014389 1e-05
-0.02054 0.014389 1e-05
-0.02056 0.0143891 1e-05
-0.02058 0.0143891 1e-05
-0.0206 0.0143891 1e-05
-0.0205 0.0170667 1e-05
-0.02052 0.017067 1e-05
-0.02054 0.0170672 1e-05
-0.02056 0.0170674 1e-05
-0.02058 0.0170675 1e-05
-0.0206 0.0170676 1e-05
-0.0205 0.0197444 1e-05
-0.02052 0.019745 1e-05
-0.02054 0.0197454 1e-05
-0.02056 0.0197457 1e-05
-0.02058 0.0197459 1e-05
-0.0206 0.019746 1e-05
-0.0205 0.0224222 1e-05
-0.02052 0.022423 1e-05
-0.02054 0.0224236 1e-05
-0.02056 0.0224241 1e-05
-0.02058 0.0224244 1e-05
-0.0206 0.0224245 1e-05
-0.0205 0.0251 1e-05
-0.02052 0.0251003 1e-05
-0.02054 0.0251005 1e-05
-0.02056 0.0251007 1e-05
-0.02058 0.0251008 1e-05
-0.0206 0.0251008 1e-05
-0.0205 0.001 1e-05
-0.0203632 0.00100536 1e-05
-0.0202266 0.00101331 1e-05
-0.0200901 0.00102296 1e-05
-0.0200427 0.00102682 1e-05
-0.0198376 0.00104418 1e-05
-0.0196338 0.00107322 1e-05
-0.0194327 0.00111734 1e-05
-0.0192368 0.00118024 1e-05
-0.0190172 0.00124951 1e-05
-0.0189002 0.00128348 1e-05
-0.0187827 0.00131598 1e-05
-0.0186649 0.001347 1e-05
-0.0185469 0.001377 1e-05
-0.0183807 0.00141936 1e-05
-0.0182041 0.00146458 1e-05
-0.0180267 0.00150692 1e-05
-0.0178487 0.0015464 1e-05
-0.0176703 0.00158389 1e-05
-0.0174976 0.00161991 1e-05
-0.0172846 0.00166394 1e-05
-0.0170715 0.00170741 1e-05
-0.0168583 0.00175029 1e-05
-0.0166449 0.00179219 1e-05
-0.0163945 0.00184007 1e-05
-0.0163234 0.00185324 1e-05
-0.0162522 0.00186629 1e-05
-0.016181 0.00187921 1e-05
-0.0161097 0.00189201 1e-05
-0.0160387 0.0019046 1e-05
-0.0157586 0.0019535 1e-05
-0.0154779 0.00199931 1e-05
-0.0151968 0.00204225 1e-05
-0.0149154 0.00208283 1e-05
-0.0146381 0.00212134 1e-05
-0.0143838 0.00215527 1e-05
-0.0141293 0.00218766 1e-05
-0.0138747 0.00221855 1e-05
-0.0136198 0.00224797 1e-05
-0.0132934 0.00228369 1e-05
-0.0132791 0.00228515 1e-05
-0.0132648 0.0022866 1e-05
-0.0132504 0.00228805 1e-05
-0.0132361 0.0022895 1e-05
-0.0132214 0.00229098 1e-05
-0.0129776 0.00231543 1e-05
-0.0127337 0.00233865 1e-05
-0.0124897 0.00236061 1e-05
-0.0122456 0.0023813 1e-05
-0.0120025 0.00240058 1e-05
-0.0117547 0.00241909 1e-05
-0.0115067 0.00243627 1e-05
-0.0112587 0.00245231 1e-05
-0.0110106 0.00246734 1e-05
-0.0107632 0.00248136 1e-05
-0.0105252 0.00249391 1e-05
-0.0102872 0.00250547 1e-05
-0.0100491 0.00251602 1e-05
-0.00981105 0.00252575 1e-05
-0.00957337 0.00253472 1e-05
-0.00934491 0.00254261 1e-05
-0.00911643 0.00254974 1e-05
-0.00888792 0.00255611 1e-05
-0.0086594 0.00256172 1e-05
-0.00843108 0.00256669 1e-05
-0.00821175 0.00257085 1e-05
-0.00799241 0.00257439 1e-05
-0.00777306 0.00257731 1e-05
-0.0075537 0.00257953 1e-05
-0.00733443 0.00258115 1e-05
-0.00712387 0.00258213 1e-05
-0.0069133 0.00258256 1e-05
-0.00670273 0.00258244 1e-05
-0.00649216 0.00258163 1e-05
-0.0062816 0.00258019 1e-05
-0.00607944 0.0025782 1e-05
-0.0058773 0.00257567 1e-05
-0.00567516 0.00257258 1e-05
-0.00547303 0.00256876 1e-05
-0.00527083 0.00256421 1e-05
-0.00507675 0.00255914 1e-05
-0.00488269 0.00255344 1e-05
-0.00468865 0.00254713 1e-05
-0.00449464 0.00253999 1e-05
-0.00430044 0.00253192 1e-05
-0.00411412 0.00252331 1e-05
-0.00392784 0.0025139 1e-05
-0.00374159 0.00250371 1e-05
-0.0035554 0.00249257 1e-05
-0.00336883 0.00248018 1e-05
-0.00318995 0.00246714 1e-05
-0.00301115 0.00245302 1e-05
-0.00283245 0.00243777 1e-05
-0.00265386 0.00242124 1e-05
-0.00247443 0.00240317 1e-05
-0.0023027 0.00238429 1e-05
-0.00213114 0.00236387 1e-05
-0.00195982 0.00234157 1e-05
-0.00178875 0.00231742 1e-05
-0.00161577 0.00229109 1e-05
-0.00161563 0.00229107 1e-05
-0.0016155 0.00229105 1e-05
-0.00161536 0.00229102 1e-05
-0.00161522 0.002291 1e-05
-0.00161508 0.00229098 1e-05
-0.00145035 0.00226408 1e-05
-0.00128602 0.00223482 1e-05
-0.00112211 0.00220328 1e-05
-0.000958652 0.00216949 1e-05
-0.000791418 0.0021324 1e-05
-0.000633135 0.00209429 1e-05
-0.000475556 0.00205336 1e-05
-0.000318719 0.00200968 1e-05
-0.000162834 0.00196271 1e-05
0 0.00190956 1e-05
3.73653e-05 0.00189635 1e-05
7.46306e-05 0.00188286 1e-05
0.000111797 0.00186911 1e-05
0.000148866 0.00185509 1e-05
0.000179192 0.00184338 1e-05
0.000249031 0.00181595 1e-05
0.000318459 0.00178749 1e-05
0.000387463 0.00175803 1e-05
0.000456027 0.00172755 1e-05
0.000528387 0.00169418 1e-05
0.000634886 0.0016432 1e-05
0.000740278 0.00158998 1e-05
0.00084451 0.00153451 1e-05
0.000947621 0.00147699 1e-05
0.00101998 0.00143469 1e-05
0.00102816 0.00142974 1e-05
0.00103633 0.00142478 1e-05
0.00104449 0.00141981 1e-05
0.00105264 0.00141482 1e-05
0.00106088 0.00140976 1e-05
0.00116821 0.00134357 1e-05
0.00127404 0.00127502 1e-05
0.00137827 0.00120406 1e-05
0.00148099 0.00113093 1e-05
0.00159678 0.00104511 1e-05
0.00159693 0.00104499 1e-05
0.00159707 0.00104488 1e-05
0.00159722 0.00104476 1e-05
0.00159737 0.00104465 1e-05
0.00159752 0.00104454 1e-05
0.0016922 0.000970953 1e-05
0.00178549 0.000895603 1e-05
0.00187729 0.000818454 1e-05
0.00196767 0.000739651 1e-05
0.00203807 0.000676368 1e-05
0.00205812 0.000657891 1e-05
0.00207809 0.000639326 1e-05
0.00209798 0.000620672 1e-05
0.0021178 0.000601954 1e-05
0.00213833 0.000582454 1e-05
0.00219148 0.000531622 1e-05
0.00224413 0.000480273 1e-05
0.00229627 0.000428399 1e-05
0.00234787 0.000375993 1e-05
0.00239418 0.000328255 1e-05
0.00245201 0.000267809 1e-05
0.00250921 0.000206764 1e-05
0.00256578 0.000145135 1e-05
0.00262184 8.30407e-05 1e-05
0.00268334 1.37367e-05 1e-05
0.00268573 1.09894e-05 1e-05
0.00268812 8.24102e-06 1e-05
0.00269051 5.49162e-06 1e-05
0.00269289 2.74119e-06 1e-05
0.00269527 0 1e-05
0.00275917 -7.37368e-05 1e-05
0.00282245 -0.000148005 1e-05
0.00288509 -0.000222813 1e-05
0.00294706 -0.000298173 1e-05
0.00300413 -0.000368654 1e-05
0.00304982 -0.000425917 1e-05
0.0030952 -0.000483425 1e-05
0.00314028 -0.000541175 1e-05
0.0031851 -0.00059912 1e-05
0.00323259 -0.000661076 1e-05
0.00325065 -0.00068488 1e-05
0.00326866 -0.000708723 1e-05
0.00328661 -0.000732607 1e-05
0.00330451 -0.00075653 1e-05
0.00332207 -0.00078009 1e-05
0.00339021 -0.000871877 1e-05
0.00345776 -0.000964108 1e-05
0.00352467 -0.00105679 1e-05
0.00359105 -0.00114986 1e-05
0.00365391 -0.00123896 1e-05
0.00368035 -0.00127683 1e-05
0.00370671 -0.00131476 1e-05
0.003733 -0.00135273 1e-05
0.00375924 -0.00139075 1e-05
0.00378611 -0.00142979 1e-05
0.0038301 -0.00149393 1e-05
0.00387388 -0.00155821 1e-05
0.00391744 -0.00162264 1e-05
0.00396078 -0.00168723 1e-05
0.00400294 -0.00175044 1e-05
0.00407114 -0.00185325 1e-05
0.00413892 -0.00195634 1e-05
0.00420628 -0.00205972 1e-05
0.00427334 -0.00216327 1e-05
0.00434393 -0.00227293 1e-05
0.00434999 -0.0022824 1e-05
0.00435604 -0.00229188 1e-05
0.00436209 -0.00230136 1e-05
0.00436814 -0.00231084 1e-05
0.00437416 -0.0023203 1e-05
0.00445501 -0.00244725 1e-05
0.0045354 -0.00257449 1e-05
0.0046154 -0.00270197 1e-05
0.00469504 -0.00282968 1e-05
0.00477291 -0.00295498 1e-05
0.00479955 -0.00299799 1e-05
0.00482616 -0.00304101 1e-05
0.00485274 -0.00308406 1e-05
0.00487932 -0.0031271 1e-05
0.00490609 -0.00317047 1e-05
0.00496673 -0.0032687 1e-05
0.00502722 -0.00336703 1e-05
0.00508756 -0.00346544 1e-05
0.00514776 -0.00356394 1e-05
0.00520741 -0.00366161 1e-05
0.00526045 -0.00374851 1e-05
0.00531346 -0.00383545 1e-05
0.00536642 -0.0039224 1e-05
0.0054194 -0.00400934 1e-05
0.00547262 -0.00409655 1e-05
0.00551559 -0.00416686 1e-05
0.00555853 -0.00423719 1e-05
0.00560144 -0.00430755 1e-05
0.00564432 -0.00437792 1e-05
0.00568714 -0.00444811 1e-05
0.00575843 -0.00456487 1e-05
0.00582975 -0.0046816 1e-05
0.00590113 -0.0047983 1e-05
0.00597264 -0.00491492 1e-05
0.00604356 -0.0050301 1e-05
0.0060798 -0.00508873 1e-05
0.00611605 -0.00514736 1e-05
0.00615231 -0.00520598 1e-05
0.00618859 -0.00526458 1e-05
0.00622498 -0.00532326 1e-05
0.00630377 -0.00545005 1e-05
0.00638275 -0.00557673 1e-05
0.00646193 -0.00570329 1e-05
0.00654138 -0.00582968 1e-05
0.00661893 -0.00595225 1e-05
0.00666281 -0.00602114 1e-05
0.00670673 -0.00608999 1e-05
0.00675071 -0.00615882 1e-05
0.00679478 -0.00622758 1e-05
0.00683922 -0.00629671 1e-05
0.00691113 -0.00640817 1e-05
0.0069833 -0.00651947 1e-05
0.00705572 -0.0066306 1e-05
0.00712844 -0.00674153 1e-05
0.00719878 -0.00684805 1e-05
0.00726942 -0.00695424 1e-05
0.00734029 -0.00706029 1e-05
0.00741138 -0.00716619 1e-05
0.00748278 -0.00727188 1e-05
0.00755571 -0.00737909 1e-05
0.0076012 -0.00744547 1e-05
0.00764681 -0.00751176 1e-05
0.00769255 -0.00757796 1e-05
0.00773842 -0.00764407 1e-05
0.00778313 -0.00770818 1e-05
0.00790091 -0.00787616 1e-05
0.00801946 -0.00804362 1e-05
0.00813878 -0.00821051 1e-05
0.0082591 -0.00837669 1e-05
0.00837203 -0.00853061 1e-05
0.00837966 -0.00854087 1e-05
0.00838729 -0.00855112 1e-05
0.00839492 -0.00856137 1e-05
0.00840256 -0.00857162 1e-05
0.00841022 -0.00858189 1e-05
0.00852127 -0.00873066 1e-05
0.00863316 -0.00887881 1e-05
0.00874588 -0.00902632 1e-05
0.00885948 -0.00917316 1e-05
0.00896551 -0.00930836 1e-05
0.00903002 -0.00938956 1e-05
0.00909478 -0.00947054 1e-05
0.00915981 -0.00955131 1e-05
0.00922515 -0.00963183 1e-05
0.00929265 -0.00971438 1e-05
0.00934684 -0.00978013 1e-05
0.00940122 -0.00984571 1e-05
0.00945581 -0.00991113 1e-05
0.00951059 -0.00997639 1e-05
0.0095636 -0.0100391 1e-05
[...]
POINT_DATA 12278
 FIELD attributes 1
U 3 12278 float
9.72339 	0.381311 	0 9.77871 	0.305049 	0 9.83405 	0.228765 	0 9.8894 	0.152465 	0 9.94476 	0.0761532 	0 10 	0 	0
10.0671 	0.375483 	0 10.0537 	0.300387 	0 10.0403 	0.225271 	0 10.0268 	0.150141 	0 10.0134 	0.0750008 	0 10 	0 	0
10.0364 	0.141572 	0 10.0291 	0.113304 	0 10.0218 	0.085089 	0 10.0145 	0.0569263 	0 10.0071 	0.0288164 	0 10 	0 	0
10.0137 	0.111519 	0 10.011 	0.0892152 	0 10.0082 	0.0669109 	0 10.0055 	0.0446062 	0 10.0027 	0.0223013 	0 10 	0 	0
10.0097 	0.0196536 	0 10.0078 	0.0157229 	0 10.0058 	0.0117922 	0 10.0039 	0.00786143 	0 10.0019 	0.00393071 	0 10 	0 	0
10.0102 	-0.0372873 	0 10.0082 	-0.0298298 	0 10.0061 	-0.0223724 	0 10.0041 	-0.0149149 	0 10.002 	-0.00745737 	0 10 	0 	0
10.0174 	-0.148996 	0 10.0139 	-0.119197 	0 10.0105 	-0.0893967 	0 10.007 	-0.0595953 	0 10.0035 	-0.0297932 	0 10 	0 	0
10.0362 	-0.265901 	0 10.029 	-0.212721 	0 10.0217 	-0.159534 	0 10.0145 	-0.106342 	0 10.0072 	-0.053146 	0 10 	0 	0
10.0563 	-0.387167 	0 10.045 	-0.309734 	0 10.0338 	-0.23228 	0 10.0225 	-0.15481 	0 10.0112 	-0.0773282 	0 10 	0 	0
8.30133 	-0.114495 	0 8.4287 	-0.091596 	0 8.55659 	-0.0686962 	0 8.68498 	-0.0457957 	0 8.81385 	-0.0228949 	0 8.94315 	0 	0
9.72339 	0.381311 	0 9.5415 	0.555241 	0 9.39671 	0.663651 	0 9.26203 	0.754271 	0 9.2183 	0.780385 	0 8.95344 	1.27614 	0 8.70578 	1.91036 	0 8.48173 	2.72184 	0 8.46724 	2.67123 	0 8.47252 	2.45986 	0 8.50117 	2.35314 	0 8.52498 	2.2443 	0 8.51221 	2.16311 	0 8.42487 	2.14738 	0 8.30214 	2.12559 	0 8.30117 	1.9821 	0 8.28715 	1.83798 	0 8.21181 	1.72569 	0 8.035 	1.67507 	0 7.86306 	1.62575 	0 7.68323 	1.56759 	0 7.50177 	1.50875 	0 7.42793 	1.45839 	0 7.36148 	1.40771 	0 7.27865 	1.34671 	0 7.22249 	1.32376 	0 7.16614 	1.3007 	0 7.10958 	1.27753 	0 7.07928 	1.2544 	0 7.05291 	1.23121 	0 6.97394 	1.13838 	0 6.88841 	1.05226 	0 6.79883 	0.980329 	0 6.71191 	0.932083 	0 6.6228 	0.883659 	0 6.55089 	0.833776 	0 6.49228 	0.787589 	0 6.44246 	0.743857 	0 6.3887 	0.699092 	0 6.31694 	0.642267 	0 6.31476 	0.640173 	0 6.3132 	0.638348 	0 6.31172 	0.636562 	0 6.31022 	0.634773 	0 6.30868 	0.632934 	0 6.27131 	0.597064 	0 6.2315 	0.560866 	0 6.18921 	0.524335 	0 6.1444 	0.487466 	0 6.10942 	0.456255 	0 6.07601 	0.420973 	0 6.0457 	0.390999 	0 6.017 	0.364555 	0 5.99442 	0.339605 	0 5.97315 	0.315201 	0 5.95245 	0.289068 	0 5.92971 	0.262725 	0 5.91347 	0.241664 	0 5.90339 	0.22266 	0 5.89181 	0.203594 	0 5.87916 	0.183527 	0 5.86497 	0.163361 	0 5.85626 	0.143797 	0 5.85335 	0.127409 	0 5.84918 	0.110994 	0 5.84295 	0.0943596 	0 5.83548 	0.0776837 	0 5.83339 	0.0589817 	0 5.83629 	0.0431086 	0 5.83798 	0.0272359 	0 5.83715 	0.0119387 	0 5.83533 	-0.00342781 	0 5.83919 	-0.0225283 	0 5.8473 	-0.0400191 	0 5.85422 	-0.0574556 	0 5.85858 	-0.0735219 	0 5.86182 	-0.0895623 	0 5.87118 	-0.11095 	0 5.88465 	-0.132487 	0 5.89662 	-0.153952 	0 5.90647 	-0.173318 	0 5.91504 	-0.192614 	0 5.92936 	-0.218073 	0 5.94824 	-0.247027 	0 5.96523 	-0.275842 	0 5.98117 	-0.302073 	0 5.99546 	-0.328155 	0 6.0145 	-0.359769 	0 6.0386 	-0.400931 	0 6.0602 	-0.44185 	0 6.08254 	-0.480312 	0 6.10473 	-0.52093 	0 6.13003 	-0.567585 	0 6.15451 	-0.619659 	0 6.17864 	-0.679467 	0 6.20602 	-0.738455 	0 6.23736 	-0.811843 	0 6.26483 	-0.884695 	0 6.28847 	-0.957009 	0 6.30858 	-1.02972 	0 6.30861 	-1.0298 	0 6.30863 	-1.02989 	0 6.30865 	-1.02998 	0 6.30868 	-1.03007 	0 6.3087 	-1.03017 	0 6.33247 	-1.12731 	0 6.351 	-1.22236 	0 6.3644 	-1.31534 	0 6.37515 	-1.414 	0 6.38842 	-1.53815 	0 6.40622 	-1.66389 	0 6.41777 	-1.78754 	0 6.40565 	-1.93004 	2.61967e-20 6.36927 	-2.07899 	5.37023e-20 6.31912 	-2.23376 	8.12043e-20 6.3109 	-2.28425 	2.33113e-20 6.29871 	-2.33161 	5.75214e-21 6.28233 	-2.37566 	3.12001e-20 6.2654 	-2.41945 	5.72694e-20 6.25105 	-2.45516 	7.91611e-20 6.22466 	-2.55098 	1.78899e-19 6.19633 	-2.64624 	2.82796e-19 6.16606 	-2.74091 	3.90825e-19 6.11992 	-2.82202 	2.74227e-19 6.0634 	-2.90233 	6.24656e-20 5.98344 	-3.02198 	4.92477e-20 5.89828 	-3.13867 	3.61691e-20 5.80142 	-3.23651 	8.55148e-21 5.70015 	-3.33242 	-1.80664e-20 5.62513 	-3.39907 	-3.6233e-20 5.61602 	-3.40834 	-3.60257e-20 5.60687 	-3.41761 	-3.58034e-20 5.59764 	-3.42623 	-3.69506e-20 5.58828 	-3.43316 	-4.17423e-20 5.57879 	-3.44016 	-4.65796e-20 5.4589 	-3.53637 	-2.83112e-20 5.33369 	-3.63061 	-9.47007e-21 5.20765 	-3.70757 	1.15705e-22 5.08143 	-3.76645 	-2.09114e-22 4.9323 	-3.83184 	6.40658e-23 4.93208 	-3.83196 	3.66616e-23 4.93186 	-3.83208 	9.25715e-24 4.93166 	-3.83216 	1.62513e-23 4.93147 	-3.83223 	4.07927e-23 4.93128 	-3.83229 	6.53409e-23 4.80554 	-3.88165 	1.11862e-21 4.67571 	-3.9294 	2.47651e-21 4.54875 	-3.96591 	4.20478e-21 4.4311 	-3.98301 	6.33046e-21 4.33576 	-3.99538 	8.20161e-21 4.30546 	-4.00303 	1.33419e-20 4.27495 	-4.0106 	1.85202e-20 4.24967 	-4.01232 	9.21131e-21 4.22453 	-4.01368 	-8.26219e-22 4.19827 	-4.01503 	-1.12328e-20 4.12443 	-4.02234 	-6.36353e-20 4.0494 	-4.02913 	-1.15669e-19 3.97335 	-4.03524 	-1.6588e-19 3.90915 	-4.02971 	-1.01602e-19 3.85031 	-4.02433 	-4.30521e-20 3.77277 	-4.02648 	4.15245e-21 3.69533 	-4.02573 	4.1956e-20 3.62348 	-4.01363 	3.41606e-20 3.55055 	-4.00104 	2.66358e-20 3.46855 	-3.98656 	1.86113e-20 3.46518 	-3.98614 	1.92436e-20 3.4618 	-3.98572 	1.98761e-20 3.45842 	-3.98529 	2.05087e-20 3.45524 	-3.98456 	2.10396e-20 3.45214 	-3.98372 	2.15286e-20 3.38402 	-3.97171 	1.41213e-20 3.31383 	-3.95756 	7.41273e-21 3.24243 	-3.94271 	6.98768e-22 3.17064 	-3.91564 	6.17387e-21 3.10301 	-3.88887 	1.23575e-20 3.06094 	-3.87887 	3.47193e-20 3.01857 	-3.86749 	5.06117e-20 2.977 	-3.84854 	2.33618e-20 2.93501 	-3.82936 	-3.83118e-21 2.88984 	-3.80868 	-3.27443e-20 2.87169 	-3.80212 	-3.88582e-20 2.85345 	-3.7955 	-4.49743e-20 2.83514 	-3.78884 	-5.10926e-20 2.81691 	-3.77976 	-5.72965e-20 2.79896 	-3.77023 	-6.34187e-20 2.74556 	-3.74917 	-1.07147e-19 2.69133 	-3.72762 	-1.50995e-19 2.63654 	-3.69698 	-1.46192e-19 2.58212 	-3.65961 	-8.81823e-20 2.5296 	-3.62351 	-3.27007e-20 2.51269 	-3.61459 	2.03734e-21 2.49573 	-3.60548 	3.51737e-20 2.47988 	-3.5931 	2.99245e-20 2.46395 	-3.58067 	2.47104e-20 2.44755 	-3.56787 	1.93963e-20 2.41699 	-3.54878 	5.65347e-20 2.38618 	-3.52949 	9.35934e-20 2.35511 	-3.51001 	1.3057e-19 2.32509 	-3.48549 	1.03463e-19 2.29567 	-3.46104 	7.22933e-20 2.25875 	-3.43536 	4.24516e-20 2.22138 	-3.40936 	1.25777e-20 2.18683 	-3.37652 	-2.88393e-21 2.15203 	-3.34333 	-1.80849e-20 2.11492 	-3.30802 	-3.41849e-20 2.11119 	-3.30515 	-3.17526e-20 2.10746 	-3.30228 	-2.9323e-20 2.10373 	-3.2994 	-2.68963e-20 2.10022 	-3.29596 	-3.3973e-20 2.09672 	-3.29251 	-4.1348e-20 2.06 	-3.26023 	-1.64715e-19 2.02427 	-3.22591 	-2.56706e-19 1.98922 	-3.1898 	-2.99669e-19 1.95698 	-3.14892 	-1.93328e-19 1.92522 	-3.10869 	-8.89892e-20 1.91662 	-3.09902 	-7.79044e-20 1.908 	-3.08933 	-6.68154e-20 1.90067 	-3.07849 	-5.65499e-20 1.89364 	-3.06739 	-4.6475e-20 1.88655 	-3.05621 	-3.63243e-20 1.86461 	-3.03083 	-1.17774e-20 1.84256 	-3.00534 	1.2791e-20 1.82096 	-2.97918 	2.99761e-20 1.80193 	-2.9502 	1.21368e-20 1.78303 	-2.92145 	-5.53876e-21 1.76964 	-2.90249 	-2.1154e-20 1.75622 	-2.88351 	-3.67575e-20 1.74498 	-2.86323 	-1.81223e-20 1.73468 	-2.84243 	1.47052e-20 1.72438 	-2.82159 	4.76397e-20 1.71205 	-2.8044 	1.21335e-20 1.69969 	-2.78719 	-2.33224e-20 1.68798 	-2.76949 	-3.49485e-20 1.67789 	-2.75064 	1.29439e-20 1.66785 	-2.73184 	6.07048e-20 1.65452 	-2.70764 	1.97485e-19 1.64122 	-2.68347 	3.34204e-19 1.63029 	-2.65853 	2.96365e-19 1.62113 	-2.63309 	1.33617e-19 1.61222 	-2.60806 	-2.7825e-20 1.60441 	-2.5947 	-5.73714e-20 1.59661 	-2.58134 	-8.69258e-20 1.58962 	-2.56765 	-8.97777e-20 1.58374 	-2.55349 	-5.62804e-20 1.57788 	-2.53933 	-2.27566e-20 1.56789 	-2.51481 	-2.46172e-20 1.558 	-2.49039 	-2.65177e-20 1.55006 	-2.46584 	-1.93172e-20 1.54462 	-2.44114 	-4.81422e-22 1.53955 	-2.41733 	1.77735e-20 1.53291 	-2.40285 	2.97424e-20 1.52629 	-2.38839 	4.17067e-20 1.52098 	-2.37371 	4.57394e-20 1.51663 	-2.35889 	4.41176e-20 1.51231 	-2.34403 	4.24659e-20 1.50707 	-2.32429 	2.55802e-20 1.50196 	-2.30466 	8.66891e-21 1.49792 	-2.28523 	-3.12776e-21 1.49657 	-2.26618 	-1.11487e-21 1.49546 	-2.24801 	8.18828e-22 1.4885 	-2.2275 	7.62112e-20 1.48164 	-2.2071 	1.51831e-19 1.47737 	-2.18685 	1.25729e-19 1.47404 	-2.16676 	6.77773e-20 1.47082 	-2.14649 	8.99966e-21 1.46961 	-2.13593 	-2.34048e-20 1.46847 	-2.12543 	-5.57655e-20 1.46758 	-2.11509 	-8.21103e-20 1.46911 	-2.10619 	-3.65377e-20 1.47068 	-2.09762 	7.88449e-21 1.46354 	-2.0674 	4.60737e-21 1.45672 	-2.03746 	1.31247e-21 1.45596 	-2.01089 	-2.34914e-20 1.45652 	-1.98519 	-5.17706e-20 1.45911 	-1.96221 	-7.49384e-20 1.45864 	-1.96027 	-6.86654e-20 1.45818 	-1.95833 	-6.24444e-20 1.45813 	-1.95659 	-6.7141e-20 1.45808 	-1.95486 	-7.18352e-20 1.45803 	-1.95312 	-7.65395e-20 1.45615 	-1.92817 	-2.09696e-19 1.45465 	-1.90352 	-3.42117e-19 1.45387 	-1.87946 	-4.46895e-19 1.45813 	-1.85922 	-1.91306e-19 1.4625 	-1.84084 	4.71373e-20 1.46035 	-1.82596 	1.11117e-19 1.45832 	-1.81117 	1.74896e-19 1.45924 	-1.79851 	1.42241e-19 1.46028 	-1.78595 	1.09687e-19 1.46149 	-1.77314 	7.63152e-20 1.46241 	-1.76355 	6.73685e-20 1.46342 	-1.75403 	5.84439e-20 1.46451 	-1.74457 	4.95416e-20 1.46713 	-1.73637 	5.16206e-20 1.4698 	-1.72859 	5.41413e-20 1.46929 	-1.70532 	2.94491e-20 1.46913 	-1.68234 	4.69514e-21 1.47205 	-1.66179 	2.0289e-20 1.47664 	-1.64231 	4.5377e-20 1.48258 	-1.6252 	6.86091e-20 1.48257 	-1.62116 	6.74985e-20 1.48265 	-1.61719 	6.76606e-20 1.48324 	-1.61359 	7.51672e-20 1.48383 	-1.61001 	8.26718e-20 1.48445 	-1.60639 	9.02634e-20 1.48717 	-1.59062 	1.39723e-19 1.49014 	-1.57505 	1.8906e-19 1.49339 	-1.55969 	2.3827e-19 1.49858 	-1.54617 	1.68547e-19 1.504 	-1.53397 	8.21383e-20 1.50566 	-1.5145 	1.55391e-19 1.50816 	-1.49577 	2.03429e-19 1.51277 	-1.47897 	1.61634e-19 1.51773 	-1.46243 	1.20367e-19 1.52343 	-1.44496 	7.66433e-20 1.52346 	-1.44487 	7.63155e-20 1.52349 	-1.44478 	7.59876e-20 1.52353 	-1.44469 	7.56597e-20 1.52356 	-1.44461 	7.60957e-20 1.52361 	-1.44453 	7.68659e-20 1.528 	-1.42749 	1.26932e-19 1.53281 	-1.41074 	1.74979e-19 1.53799 	-1.39425 	2.22635e-19 1.54476 	-1.37954 	1.84315e-19 1.55187 	-1.36661 	1.17186e-19 1.5552 	-1.34901 	2.03216e-19 1.55942 	-1.3323 	2.39226e-19 1.56507 	-1.31715 	1.7448e-19 1.57105 	-1.30224 	1.09948e-19 1.5774 	-1.2887 	3.78635e-20 1.57762 	-1.28773 	3.76187e-20 1.57788 	-1.28681 	3.68113e-20 1.57819 	-1.28595 	3.52943e-20 1.57851 	-1.28509 	3.37769e-20 1.57882 	-1.28423 	3.2251e-20 1.58405 	-1.27026 	-1.33449e-20 1.58958 	-1.25648 	-5.88614e-20 1.59541 	-1.2429 	-1.04296e-19 1.60213 	-1.23053 	-8.9359e-20 1.6092 	-1.21978 	-2.99556e-20 1.61365 	-1.20426 	-7.53423e-20 1.61842 	-1.18895 	-1.21143e-19 1.6245 	-1.17557 	-1.03511e-19 1.63179 	-1.16291 	-6.09362e-20 1.63982 	-1.15153 	3.30084e-22 1.6421 	-1.14473 	2.86739e-20 1.64471 	-1.13843 	2.81632e-20 1.64756 	-1.13249 	7.09208e-21 1.65047 	-1.1266 	-1.39286e-20 1.65359 	-1.12045 	-3.5942e-20 1.65725 	-1.1136 	-6.79923e-20 1.66099 	-1.10679 	-9.993e-20 1.66482 	-1.10005 	-1.31755e-19 1.66888 	-1.09373 	-1.31302e-19 1.67314 	-1.08823 	-7.98838e-20 1.67829 	-1.07449 	-1.11922e-19 1.68431 	-1.06123 	-1.36255e-19 1.69165 	-1.04883 	-1.45625e-19 1.69984 	-1.03822 	-1.35296e-19 1.70793 	-1.02825 	-1.25306e-19 1.71371 	-1.01474 	-2.75612e-19 1.71998 	-1.00205 	-3.49787e-19 1.72687 	-0.990607 	-2.95717e-19 1.73402 	-0.979326 	-2.42155e-19 1.74231 	-0.969245 	-1.16105e-19 1.7444 	-0.964937 	-8.28062e-20 1.74663 	-0.961076 	-8.501e-20 1.74893 	-0.957349 	-9.67954e-20 1.75125 	-0.953639 	-1.08534e-19 1.7537 	-0.949787 	-1.20724e-19 1.75859 	-0.942402 	-1.24347e-19 1.76359 	-0.935084 	-1.27942e-19 1.76871 	-0.927834 	-1.3151e-19 1.77397 	-0.920875 	-1.2969e-19 1.77933 	-0.915088 	-1.05213e-19 1.78538 	-0.903156 	-1.32825e-19 1.79243 	-0.891794 	-1.44879e-19 1.80037 	-0.880941 	-1.43651e-19 1.80869 	-0.871878 	-1.02943e-19 1.81698 	-0.863346 	-6.09164e-20 1.82359 	-0.851655 	-1.64879e-19 1.83047 	-0.840134 	-2.66549e-19 1.83764 	-0.830441 	-2.25237e-19 1.84585 	-0.821331 	-1.27947e-19 1.85453 	-0.812885 	4.47079e-23 1.86113 	-0.802359 	1.42706e-22 1.86789 	-0.79346 	1.08184e-22 1.87484 	-0.784704 	6.96661e-23 1.88199 	-0.776047 	3.07223e-23 1.89034 	-0.766307 	-1.40901e-23 1.89074 	-0.765866 	7.5431e-22 1.89114 	-0.765424 	1.52218e-21 1.89154 	-0.764983 	2.28951e-21 1.89195 	-0.764543 	3.05631e-21 1.89234 	-0.764189 	4.49646e-22 1.89982 	-0.754731 	-2.54686e-20 1.90761 	-0.745447 	-4.73365e-20 1.91563 	-0.736275 	-6.90261e-20 1.92386 	-0.727229 	-8.98614e-20 1.93177 	-0.720241 	-3.11758e-20 1.93866 	-0.710285 	-2.11052e-20 1.94623 	-0.700766 	-1.38802e-20 1.95461 	-0.691783 	-1.03674e-20 1.96278 	-0.684515 	-1.5962e-20 1.97092 	-0.677647 	-2.24276e-20 1.97824 	-0.66794 	5.39656e-20 1.98578 	-0.658335 	1.30471e-19 1.9932 	-0.650249 	1.32362e-19 2.00152 	-0.643303 	6.57238e-20 2.00986 	-0.63656 	1.62864e-22 2.01757 	-0.627108 	9.67163e-23 2.0251 	-0.618735 	-1.12254e-20 2.03253 	-0.611194 	-3.1071e-20 2.04013 	-0.603732 	-5.08928e-20 2.0486 	-0.597091 	-6.39448e-20 2.05549 	-0.589411 	-1.06378e-19 2.06199 	-0.582921 	-1.09923e-19 2.06864 	-0.576489 	-1.13527e-19 2.07542 	-0.570113 	-1.1719e-19 2.08336 	-0.562857 	-1.21463e-19 2.08414 	-0.562171 	-1.22685e-19 2.08493 	-0.561485 	-1.23906e-19 2.08572 	-0.5608 	-1.25126e-19 2.08651 	-0.560115 	-1.26346e-19 2.08723 	-0.559559 	-1.2221e-19 2.09469 	-0.552257 	-9.42733e-20 2.10239 	-0.545099 	-6.503e-20 2.11026 	-0.538011 	-3.58246e-20 2.1183 	-0.530991 	-6.65731e-21 2.12556 	-0.525504 	1.79197e-22 2.13272 	-0.517739 	6.74876e-20 2.14055 	-0.510756 	8.65223e-20 2.14856 	-0.503864 	1.03659e-19 2.15621 	-0.49779 	8.4301e-20 2.16323 	-0.492872 	1.48724e-20 2.17062 	-0.48535 	-5.50685e-20 2.17823 	-0.477975 	-1.18886e-19 2.1863 	-0.471337 	-1.35003e-19 2.19321 	-0.466472 	-6.72711e-20 2.20019 	-0.461691 	-7.23541e-23 2.20778 	-0.454412 	-3.94554e-23 2.21554 	-0.447191 	-6.72897e-24 2.22265 	-0.441328 	0 2.22949 	-0.436611 	0 2.2364 	-0.431968 	0 2.24415 	-0.42493 	0 2.25183 	-0.418215 	0 2.25833 	-0.41298 	0 2.26502 	-0.408203 	-1.01226e-20 2.27183 	-0.403698 	-2.51452e-20 2.27971 	-0.3969 	-6.20961e-21 2.28663 	-0.391265 	-6.36509e-21 2.29313 	-0.386215 	-1.5831e-20 2.29975 	-0.381228 	-2.67049e-20 2.30642 	-0.376861 	-6.64478e-20 2.31413 	-0.370551 	-2.85002e-20 2.32047 	-0.36565 	-3.02892e-20 2.32694 	-0.360782 	-3.20501e-20 2.33353 	-0.355948 	-3.3783e-20 2.34012 	-0.35143 	-4.64598e-20 2.34635 	-0.346582 	-3.6932e-20 2.35194 	-0.342378 	-3.83784e-20 2.35763 	-0.338199 	-3.98035e-20 2.36341 	-0.334044 	-4.12073e-20 2.37024 	-0.329239 	-4.28156e-20 2.37078 	-0.328871 	-4.26932e-20 2.37132 	-0.328504 	-4.2571e-20 2.37186 	-0.328136 	-4.2449e-20 2.3724 	-0.327769 	-4.23271e-20 2.37287 	-0.327457 	-4.25107e-20 2.37904 	-0.322867 	-4.92727e-20 2.3853 	-0.318331 	-5.38209e-20 2.39167 	-0.313823 	-5.82921e-20 2.39816 	-0.309343 	-6.26868e-20 2.40379 	-0.305618 	-3.89576e-20 2.41012 	-0.300902 	-7.5211e-20 2.41628 	-0.296542 	-8.73435e-20 2.42255 	-0.292208 	-9.94172e-20 2.42893 	-0.287898 	-1.11433e-19 2.43356 	-0.284913 	-7.12897e-20 2.44014 	-0.280129 	-1.1862e-19 2.44618 	-0.275942 	-1.21146e-19 2.45232 	-0.271779 	-1.23626e-19 2.45821 	-0.267875 	-1.18994e-19 2.46218 	-0.265312 	-7.53392e-20 2.46879 	-0.260696 	-1.17869e-19 2.47496 	-0.256491 	-1.28054e-19 2.48096 	-0.252496 	-1.22448e-19 2.48589 	-0.249236 	-9.48019e-20 2.48963 	-0.246777 	-4.31999e-20 2.49621 	-0.242364 	4.31584e-20 2.50261 	-0.238144 	1.03927e-19 2.50844 	-0.234316 	1.09422e-19 2.51242 	-0.231628 	5.03761e-20 2.51591 	-0.229273 	-2.66906e-20 2.52245 	-0.225059 	-1.75872e-20 2.5291 	-0.220865 	-8.49371e-21 2.53461 	-0.217281 	8.66921e-21 2.53779 	-0.215014 	2.59577e-20 2.54102 	-0.21276 	4.3221e-20 2.5475 	-0.208742 	-4.3324e-20 2.55408 	-0.204741 	-1.29882e-19 2.55907 	-0.20152 	-1.41235e-19 2.56199 	-0.199354 	-7.10732e-20 2.56496 	-0.197198 	-1.00984e-21 2.57136 	-0.193371 	-9.64864e-23 2.57787 	-0.18956 	7.96076e-22 2.58237 	-0.186675 	-1.56607e-20 2.58503 	-0.184607 	-4.94077e-20 2.58773 	-0.182548 	-8.31299e-20 2.59405 	-0.178908 	-4.76741e-20 2.60046 	-0.175282 	-1.22341e-20 2.60453 	-0.172706 	-8.54674e-21 2.60692 	-0.170734 	-2.59305e-20 2.60936 	-0.16877 	-4.32985e-20 2.61557 	-0.165313 	-2.59878e-20 2.62187 	-0.16187 	-8.71827e-21 2.62548 	-0.159593 	-9.4625e-21 2.62767 	-0.157697 	-2.60538e-20 2.62984 	-0.155826 	-4.33794e-20 2.63595 	-0.152546 	-1.64888e-19 2.6416 	-0.149493 	-2.61744e-19 2.64504 	-0.147334 	-2.57055e-19 2.64731 	-0.145456 	-1.64749e-19 2.64921 	-0.143675 	-4.33598e-20 2.6552 	-0.140569 	-2.59817e-20 2.66021 	-0.137862 	-8.62117e-21 2.66349 	-0.135819 	8.70895e-21 2.66584 	-0.133973 	2.13111e-20 2.66747 	-0.132281 	3.02531e-20 2.67334 	-0.129343 	9.13218e-20 2.67773 	-0.126946 	1.18676e-19 2.68085 	-0.125014 	1.17003e-19 2.68329 	-0.123212 	9.21135e-20 2.68466 	-0.121606 	3.16767e-20 2.6904 	-0.118832 	2.32346e-20 2.69421 	-0.11671 	1.48087e-20 2.69715 	-0.114886 	6.38789e-21 2.69969 	-0.113138 	0 2.70081 	-0.111616 	0 2.70641 	-0.109 	0 2.70966 	-0.107122 	1.47235e-20 2.71244 	-0.105403 	3.25539e-20 2.71506 	-0.103716 	5.03691e-20 2.71593 	-0.102275 	6.81111e-20 2.7214 	-0.0998129 	1.90109e-19 2.72412 	-0.098151 	1.93601e-19 2.72674 	-0.0965332 	1.91075e-19 2.7294 	-0.0949185 	1.88598e-19 2.73007 	-0.0935517 	7.02173e-20 2.73521 	-0.0912895 	5.32029e-20 2.73762 	-0.0897663 	3.62417e-20 2.74008 	-0.0882459 	1.92724e-20 2.74257 	-0.0867282 	2.29492e-21 2.74325 	-0.0854128 	1.46968e-20 2.74794 	-0.0833673 	-4.34587e-24 2.7502 	-0.0819384 	-2.98919e-23 2.75249 	-0.0805118 	-5.54277e-23 2.75483 	-0.0790877 	-8.09534e-23 2.75552 	-0.0778279 	6.38852e-21 2.75978 	-0.0759774 	-5.0802e-20 2.76189 	-0.0746391 	-4.95031e-20 2.76403 	-0.0733029 	-4.82317e-20 2.76621 	-0.0719688 	-4.69877e-20 2.76689 	-0.0707676 	-5.64328e-21 2.77076 	-0.0690925 	8.55988e-23 2.77272 	-0.0678413 	6.04923e-23 2.77471 	-0.0665918 	3.53761e-23 2.77674 	-0.0653442 	1.02502e-23 2.77742 	-0.0642037 	0 2.78093 	-0.0626866 	1.1192e-20 2.78274 	-0.0615188 	3.75155e-20 2.78459 	-0.0603526 	6.38302e-20 2.78647 	-0.0591878 	9.01362e-20 2.78714 	-0.0581093 	1.075e-19 2.79031 	-0.0567344 	1.73095e-19 2.79199 	-0.0556465 	1.72017e-19 2.79369 	-0.0545599 	1.70967e-19 2.79543 	-0.0534746 	1.69944e-19 2.79609 	-0.0524585 	1.02489e-19 2.79895 	-0.0512118 	8.75823e-20 2.80049 	-0.0502002 	5.31485e-20 2.80206 	-0.0491898 	1.87093e-20 2.80366 	-0.0481805 	-1.57353e-20 2.8043 	-0.0472265 	-4.669e-20 2.80687 	-0.0460955 	-9.02058e-20 2.80829 	-0.0451568 	-8.8998e-20 2.80974 	-0.0442191 	-8.7824e-20 2.81121 	-0.0432822 	-8.66838e-20 2.81182 	-0.0423897 	-3.70511e-20 2.81413 	-0.0413632 	-4.9533e-20 2.81543 	-0.0404939 	-3.17122e-20 2.81675 	-0.0396254 	-1.39093e-20 2.8181 	-0.0387577 	3.87571e-21 2.81867 	-0.0379255 	4.31042e-20 2.82075 	-0.0369935 	4.98641e-20 2.82193 	-0.0361903 	6.73351e-20 2.82314 	-0.0353877 	8.4798e-20 2.82437 	-0.0345857 	1.02253e-19 2.8249 	-0.0338122 	1.22067e-19 2.82678 	-0.032966 	1.46225e-19 2.82785 	-0.0322254 	1.37002e-19 2.82894 	-0.0314853 	1.27801e-19 2.83006 	-0.0307458 	1.1862e-19 2.83055 	-0.0300292 	8.16898e-20 2.83224 	-0.0292608 	5.80655e-20 2.83321 	-0.0285796 	3.23172e-20 2.8342 	-0.0278988 	6.56708e-21 2.83521 	-0.0272184 	-1.91849e-20 2.83565 	-0.0265566 	-4.10471e-20 2.83717 	-0.0258591 	-5.61575e-20 2.83804 	-0.025234 	-3.83833e-20 2.83894 	-0.0246092 	-2.06351e-20 2.83985 	-0.0239849 	-2.91298e-21 2.84023 	-0.0233757 	4.84815e-20 2.84161 	-0.0227428 	1.02305e-19 2.84239 	-0.0221706 	1.09985e-19 2.84319 	-0.0215988 	1.17709e-19 2.84401 	-0.0210273 	1.25476e-19 2.84433 	-0.0204684 	8.86209e-20 2.84558 	-0.0198944 	7.1801e-20 2.84628 	-0.0193722 	6.32573e-20 2.847 	-0.0188502 	5.47095e-20 2.84773 	-0.0183284 	4.61576e-20 2.84798 	-0.0178173 	3.76083e-20 2.84913 	-0.0172973 	1.44209e-20 2.84975 	-0.016822 	1.47689e-20 2.85038 	-0.0163469 	1.50943e-20 2.85104 	-0.0158719 	1.53971e-20 2.85122 	-0.0154061 	4.14754e-20 2.85227 