# vtk DataFile Version 2.0
track0
ASCII
DATASET POLYDATA
POINTS 12278 float
-0.0205 0.001 1e-05
-0.02052 0.000999216 1e-05
-0.02054 0.000998592 1e-05
-0.02056 0.000998126 1e-05
-0.02058 0.000997818 1e-05
-0.0206 0.000997665 1e-05
-0.0205 0.00367778 1e-05
-0.02052 0.00367703 1e-05
-0.02054 0.00367643 1e-05
-0.02056 0.00367599 1e-05
-0.02058 0.00367569 1e-05
-0.0206 0.00367554 1e-05
-0.0205 0.00635556 1e-05
-0.02052 0.00635527 1e-05
-0.02054 0.00635505 1e-05
-0.02056 0.00635488 1e-05
-0.02058 0.00635476 1e-05
-0.0206 0.00635471 1e-05
-0.0205 0.00903333 1e-05
-0.02052 0.00903311 1e-05
-0.02054 0.00903293 1e-05
-0.02056 0.0090328 1e-05
-0.02058 0.00903271 1e-05
-0.0206 0.00903266 1e-05
-0.0205 0.0117111 1e-05
-0.02052 0.0117111 1e-05
-0.02054 0.011711 1e-05
-0.02056 0.011711 1e-05
-0.02058 0.011711 1e-05
-0.0206 0.011711 1e-05
-0.0205 0.0143889 1e-05
-0.02052 0.014389 1e-05
-0.02054 0.014389 1e-05
-0.02056 0.0143891 1e-05
-0.02058 0.0143891 1e-05
-0.0206 0.0143891 1e-05
-0.0205 0.0170667 1e-05
-0.02052 0.017067 1e-05
-0.02054 0.0170672 1e-05
-0.02056 0.0170674 1e-05
-0.02058 0.0170675 1e-05
-0.0206 0.0170676 1e-05
-0.0205 0.0197444 1e-05
-0.02052 0.019745 1e-05
-0.02054 0.0197454 1e-05
-0.02056 0.0197457 1e-05
-0.02058 0.0197459 1e-05
-0.0206 0.019746 1e-05
-0.0205 0.0224222 1e-05
-0.02052 0.022423 1e-05
-0.02054 0.0224236 1e-05
-0.02056 0.0224241 1e-05
-0.02058 0.0224244 1e-05
-0.0206 0.0224245 1e-05
-0.0205 0.0251 1e-05
-0.02052 0.0251003 1e-05
-0.02054 0.0251005 1e-05
-0.02056 0.0251007 1e-05
-0.02058 0.0251008 1e-05
-0.0206 0.0251008 1e-05
-0.0205 0.001 1e-05
-0.0203632 0.00100536 1e-05
-0.0202266 0.00101331 1e-05
-0.0200901 0.00102296 1e-05
-0.0200427 0.00102682 1e-05
-0.0198376 0.00104418 1e-05
-0.0196338 0.00107322 1e-05
-0.0194327 0.00111734 1e-05
-0.0192368 0.00118024 1e-05
-0.0190172 0.00124951 1e-05
-0.0189002 0.00128348 1e-05
-0.0187827 0.00131598 1e-05
-0.0186649 0.001347 1e-05
-0.0185469 0.001377 1e-05
-0.0183807 0.00141936 1e-05
-0.0182041 0.00146458 1e-05
-0.0180267 0.00150692 1e-05
-0.0178487 0.0015464 1e-05
-0.0176703 0.00158389 1e-05
-0.0174976 0.00161991 1e-05
-0.0172846 0.00166394 1e-05
-0.0170715 0.00170741 1e-05
-0.0168583 0.00175029 1e-05
-0.0166449 0.00179219 1e-05
-0.0163945 0.00184007 1e-05
-0.0163234 0.00185324 1e-05
-0.0162522 0.00186629 1e-05
-0.016181 0.00187921 1e-05
-0.0161097 0.00189201 1e-05
-0.0160387 0.0019046 1e-05
-0.0157586 0.0019535 1e-05
-0.0154779 0.00199931 1e-05
-0.0151968 0.00204225 1e-05
-0.0149154 0.00208283 1e-05
-0.0146381 0.00212134 1e-05
-0.0143838 0.00215527 1e-05
-0.0141293 0.00218766 1e-05
-0.0138747 0.00221855 1e-05
-0.0136198 0.00224797 1e-05
-0.0132934 0.00228369 1e-05
-0.0132791 0.00228515 1e-05
-0.0132648 0.0022866 1e-05
-0.0132504 0.00228805 1e-05
-0.0132361 0.0022895 1e-05
-0.0132214 0.00229098 1e-05
-0.0129776 0.00231543 1e-05
-0.0127337 0.00233865 1e-05
-0.0124897 0.00236061 1e-05
-0.0122456 0.0023813 1e-05
-0.0120025 0.00240058 1e-05
-0.0117547 0.00241909 1e-05
-0.0115067 0.00243627 1e-05
-0.0112587 0.00245231 1e-05
-0.0110106 0.00246734 1e-05
-0.0107632 0.00248136 1e-05
-0.0105252 0.00249391 1e-05
-0.0102872 0.00250547 1e-05
-0.0100491 0.00251602 1e-05
-0.00981105 0.00252575 1e-05
-0.00957337 0.00253472 1e-05
-0.00934491 0.00254261 1e-05
-0.00911643 0.00254974 1e-05
-0.00888792 0.00255611 1e-05
-0.0086594 0.00256172 1e-05
-0.00843108 0.00256669 1e-05
-0.00821175 0.00257085 1e-05
-0.00799241 0.00257439 1e-05
-0.00777306 0.00257731 1e-05
-0.0075537 0.00257953 1e-05
-0.00733443 0.00258115 1e-05
-0.00712387 0.00258213 1e-05
-0.0069133 0.00258256 1e-05
-0.00670273 0.00258244 1e-05
-0.00649216 0.00258163 1e-05
-0.0062816 0.00258019 1e-05
-0.00607944 0.0025782 1e-05
-0.0058773 0.00257567 1e-05
-0.00567516 0.00257258 1e-05
-0.00547303 0.00256876 1e-05
-0.00527083 0.00256421 1e-05
-0.00507675 0.00255914 1e-05
-0.00488269 0.00255344 1e-05
-0.00468865 0.00254713 1e-05
-0.00449464 0.00253999 1e-05
-0.00430044 0.00253192 1e-05
-0.00411412 0.00252331 1e-05
-0.00392784 0.0025139 1e-05
-0.00374159 0.00250371 1e-05
-0.0035554 0.00249257 1e-05
-0.00336883 0.00248018 1e-05
-0.00318995 0.00246714 1e-05
-0.00301115 0.00245302 1e-05
-0.00283245 0.00243777 1e-05
-0.00265386 0.00242124 1e-05
-0.00247443 0.00240317 1e-05
-0.0023027 0.00238429 1e-05
-0.00213114 0.00236387 1e-05
-0.00195982 0.00234157 1e-05
-0.00178875 0.00231742 1e-05
-0.00161577 0.00229109 1e-05
-0.00161563 0.00229107 1e-05
-0.0016155 0.00229105 1e-05
-0.00161536 0.00229102 1e-05
-0.00161522 0.002291 1e-05
-0.00161508 0.00229098 1e-05
-0.00145035 0.00226408 1e-05
-0.00128602 0.00223482 1e-05
-0.00112211 0.00220328 1e-05
-0.000958652 0.00216949 1e-05
-0.000791418 0.0021324 1e-05
-0.000633135 0.00209429 1e-05
-0.000475556 0.00205336 1e-05
-0.000318719 0.00200968 1e-05
-0.000162834 0.00196271 1e-05
0 0.00190956 1e-05
3.73653e-05 0.00189635 1e-05
7.46306e-05 0.00188286 1e-05
0.000111797 0.00186911 1e-05
0.000148866 0.00185509 1e-05
0.000179192 0.00184338 1e-05
0.000249031 0.00181595 1e-05
0.000318459 0.00178749 1e-05
0.000387463 0.00175803 1e-05
0.000456027 0.00172755 1e-05
0.000528387 0.00169418 1e-05
0.000634886 0.0016432 1e-05
0.000740278 0.00158998 1e-05
0.00084451 0.00153451 1e-05
0.000947621 0.00147699 1e-05
0.00101998 0.00143469 1e-05
0.00102816 0.00142974 1e-05
0.00103633 0.00142478 1e-05
0.00104449 0.00141981 1e-05
0.00105264 0.00141482 1e-05
0.00106088 0.00140976 1e-05
0.00116821 0.00134357 1e-05
0.00127404 0.00127502 1e-05
0.00137827 0.00120406 1e-05
0.00148099 0.00113093 1e-05
0.00159678 0.00104511 1e-05
0.00159693 0.00104499 1e-05
0.00159707 0.00104488 1e-05
0.00159722 0.00104476 1e-05
0.00159737 0.00104465 1e-05
0.00159752 0.00104454 1e-05
0.0016922 0.000970953 1e-05
0.00178549 0.000895603 1e-05
0.00187729 0.000818454 1e-05
0.00196767 0.000739651 1e-05
0.00203807 0.000676368 1e-05
0.00205812 0.000657891 1e-05
0.00207809 0.000639326 1e-05
0.00209798 0.000620672 1e-05
0.0021178 0.000601954 1e-05
0.00213833 0.000582454 1e-05
0.00219148 0.000531622 1e-05
0.00224413 0.000480273 1e-05
0.00229627 0.000428399 1e-05
0.00234787 0.000375993 1e-05
0.00239418 0.000328255 1e-05
0.00245201 0.000267809 1e-05
0.00250921 0.000206764 1e-05
0.00256578 0.000145135 1e-05
0.00262184 8.30407e-05 1e-05
0.00268334 1.37367e-05 1e-05
0.00268573 1.09894e-05 1e-05
0.00268812 8.24102e-06 1e-05
0.00269051 5.49162e-06 1e-05
0.00269289 2.74119e-06 1e-05
0.00269527 0 1e-05
0.00275917 -7.37368e-05 1e-05
0.00282245 -0.000148005 1e-05
0.00288509 -0.000222813 1e-05
0.00294706 -0.000298173 1e-05
0.00300413 -0.000368654 1e-05
0.00304982 -0.000425917 1e-05
0.0030952 -0.000483425 1e-05
0.00314028 -0.000541175 1e-05
0.0031851 -0.00059912 1e-05
0.00323259 -0.000661076 1e-05
0.00325065 -0.00068488 1e-05
0.00326866 -0.000708723 1e-05
0.00328661 -0.000732607 1e-05
0.00330451 -0.00075653 1e-05
0.00332207 -0.00078009 1e-05
0.00339021 -0.000871877 1e-05
0.00345776 -0.000964108 1e-05
0.00352467 -0.00105679 1e-05
0.00359105 -0.00114986 1e-05
0.00365391 -0.00123896 1e-05
0.00368035 -0.00127683 1e-05
0.00370671 -0.00131476 1e-05
0.003733 -0.00135273 1e-05
0.00375924 -0.00139075 1e-05
0.00378611 -0.00142979 1e-05
0.0038301 -0.00149393 1e-05
0.00387388 -0.00155821 1e-05
0.00391744 -0.00162264 1e-05
0.00396078 -0.00168723 1e-05
0.00400294 -0.00175044 1e-05
0.00407114 -0.00185325 1e-05
0.00413892 -0.00195634 1e-05
0.00420628 -0.00205972 1e-05
0.00427334 -0.00216327 1e-05
0.00434393 -0.00227293 1e-05
0.00434999 -0.0022824 1e-05
0.00435604 -0.00229188 1e-05
0.00436209 -0.00230136 1e-05
0.00436814 -0.00231084 1e-05
0.00437416 -0.0023203 1e-05
0.00445501 -0.00244725 1e-05
0.0045354 -0.00257449 1e-05
0.0046154 -0.00270197 1e-05
0.00469504 -0.00282968 1e-05
0.00477291 -0.00295498 1e-05
0.00479955 -0.00299799 1e-05
0.00482616 -0.00304101 1e-05
0.00485274 -0.00308406 1e-05
0.00487932 -0.0031271 1e-05
0.00490609 -0.00317047 1e-05
0.00496673 -0.0032687 1e-05
0.00502722 -0.00336703 1e-05
0.00508756 -0.00346544 1e-05
0.00514776 -0.00356394 1e-05
0.00520741 -0.00366161 1e-05
0.00526045 -0.00374851 1e-05
0.00531346 -0.00383545 1e-05
0.00536642 -0.0039224 1e-05
0.0054194 -0.00400934 1e-05
0.00547262 -0.00409655 1e-05
0.00551559 -0.00416686 1e-05
0.00555853 -0.00423719 1e-05
0.00560144 -0.00430755 1e-05
0.00564432 -0.00437792 1e-05
0.00568714 -0.00444811 1e-05
0.00575843 -0.00456487 1e-05
0.00582975 -0.0046816 1e-05
0.00590113 -0.0047983 1e-05
0.00597264 -0.00491492 1e-05
0.00604356 -0.0050301 1e-05
0.0060798 -0.00508873 1e-05
0.00611605 -0.00514736 1e-05
0.00615231 -0.00520598 1e-05
0.00618859 -0.00526458 1e-05
0.00622498 -0.00532326 1e-05
0.00630377 -0.00545005 1e-05
0.00638275 -0.00557673 1e-05
0.00646193 -0.00570329 1e-05
0.00654138 -0.00582968 1e-05
0.00661893 -0.00595225 1e-05
0.00666281 -0.00602114 1e-05
0.00670673 -0.00608999 1e-05
0.00675071 -0.00615882 1e-05
0.00679478 -0.00622758 1e-05
0.00683922 -0.00629671 1e-05
0.00691113 -0.00640817 1e-05
0.0069833 -0.00651947 1e-05
0.00705572 -0.0066306 1e-05
0.00712844 -0.00674153 1e-05
0.00719878 -0.00684805 1e-05
0.00726942 -0.00695424 1e-05
0.00734029 -0.00706029 1e-05
0.00741138 -0.00716619 1e-05
0.00748278 -0.00727188 1e-05
0.00755571 -0.00737909 1e-05
0.0076012 -0.00744547 1e-05
0.00764681 -0.00751176 1e-05
0.00769255 -0.00757796 1e-05
0.00773842 -0.00764407 1e-05
0.00778313 -0.00770818 1e-05
0.00790091 -0.00787616 1e-05
0.00801946 -0.00804362 1e-05
0.00813878 -0.00821051 1e-05
0.0082591 -0.00837669 1e-05
0.00837203 -0.00853061 1e-05
0.00837966 -0.00854087 1e-05
0.00838729 -0.00855112 1e-05
0.00839492 -0.00856137 1e-05
0.00840256 -0.00857162 1e-05
0.00841022 -0.00858189 1e-05
0.00852127 -0.00873066 1e-05
0.00863316 -0.00887881 1e-05
0.00874588 -0.00902632 1e-05
0.00885948 -0.00917316 1e-05
0.00896551 -0.00930836 1e-05
0.00903002 -0.00938956 1e-05
0.00909478 -0.00947054 1e-05
0.00915981 -0.00955131 1e-05
0.00922515 -0.00963183 1e-05
0.00929265 -0.00971438 1e-05
0.00934684 -0.00978013 1e-05
0.00940122 -0.00984571 1e-05
0.00945581 -0.00991113 1e-05
0.00951059 -0.00997639 1e-05
0.0095636 -0.0100391 1e-05
[...]
POINT_DATA 12278
 FIELD attributes 2
p 1 12278 float
177015 177097 177169 177233 177287 177331
108948 108967 108983 108997 109009 109020
87755.1 87764.7 87774.1 87783.2 87792.2 87800.6
79937.4 79943.7 79949.9 79956.1 79962.1 79968.1
77146.5 77155.7 77165 77174.2 77183.4 77192.6
77563.9 77577.5 77591 77604.6 77618.2 77631.7
81097.1 81109.5 81121.7 81133.8 81145.8 81157.5
90923.6 90943.3 90962.3 90980.6 90998.2 91015.1
117356 117388 117419 117447 117473 117497
215474 215285 215093 214899 214702 214504
177015 173410 169083 164504 162838 158906 155524 152873 144708 134667 129224 123795 119857 119246 118394 112349 106449 102328 101432 100566 99583.4 98601.2 97174.6 95706.3 93990.7 93624.2 93257.2 92889.6 92408.6 91910.9 89991.4 88187.4 86673.5 85886.1 85109.4 84423.6 83758.8 83109 82457.3 81623.3 81588.4 81559.5 81531.4 81503.4 81474.6 80941.8 80409.5 79877.7 79346.4 78921.3 78495.1 78085.9 77688.2 77312.6 76946.7 76596.7 76246.4 75922.7 75621.2 75320.2 75030.7 74741 74462.5 74199.7 73937.1 73683.4 73429.7 73179.6 72943.4 72707.4 72478.5 72249.6 72019 71799.6 71580.4 71366.7 71153.2 70934.6 70723.7 70513 70305.9 70099 69886 69673.6 69461.4 69249.5 69038 68822.9 68594.8 68367.2 68134.3 67898.7 67654.6 67401.9 67136 66855.8 66542 66229.9 65919.2 65606.2 65605.9 65605.6 65605.2 65604.8 65604.5 65213.3 64827.9 64448.1 64050.1 63570.1 63054.6 62544.9 61844 61070.9 60257.8 60009.4 59771.3 59544.1 59317.5 59132.1 58575.4 58016.5 57455.5 56982.4 56514.2 55909.7 55307 54767.2 54226.1 53841.2 53783.2 53725.1 53669.9 53622.4 53574.3 53021.1 52460.8 51942.8 51470.5 50924.7 50923.8 50922.8 50922 50921.3 50920.6 50493.4 50058.7 49656.2 49320.7 49051.7 48952.5 48852.9 48782.1 48712.5 48640 48451.5 48260.6 48068 47923.5 47791.4 47618.7 47450.1 47310.5 47168.9 47009.6 47003.1 46996.7 46990.2 46984.4 46978.8 46873.6 46761.3 46646.5 46533.3 46426.3 46390.8 46354 46314.5 46274.1 46230.3 46210.2 46189.9 46169.5 46148.3 46127.2 46101.8 46075.1 46038 45995.7 45954.2 45956.6 45958.7 45958 45957.2 45956.2 45944.9 45933.2 45921.1 45906 45890.8 45900.6 45909.7 45914.2 45918.2 45921.9 45921 45920.2 45919.3 45918.3 45917.2 45930.7 45944.3 45957 45967.7 45978 45988.3 45998.5 46008.3 46018 46027.8 46039.3 46050.7 46061.9 46073 46083.9 46102.3 46120.7 46139.2 46157.7 46176.3 46184.9 46193.4 46202.1 46211.2 46220.3 46243 46265.7 46289.1 46313 46336.7 46344.1 46351.5 46359.3 46367.5 46375.8 46399 46422.3 46446.4 46471.7 46496.4 46505.3 46514.2 46523.9 46534.1 46544.4 46564 46583.8 46604.2 46626.1 46647.3 46661.2 46675.1 46690.8 46707.1 46723.8 46735.3 46746.9 46758.6 46771.3 46783.7 46805.6 46827.7 46853.2 46879.4 46905.3 46906.4 46907.5 46908.8 46910.2 46911.6 46932.8 46954.2 46975.9 46999.8 47022.2 47031.7 47041.3 47052.3 47063.3 47074.8 47084.5 47094.2 47104 47114.4 47124.6 47141.8 47159.1 47178 47197.9 47217.2 47219.8 47222.4 47225.3 47228.3 47231.2 47245.6 47260 47274.6 47290.2 47305.1 47318.8 47333 47348.5 47364 47380.9 47381 47381.1 47381.2 47381.3 47381.4 47396 47410.7 47425.5 47441.4 47456.6 47468.7 47481.2 47494.8 47508.5 47521.6 47522.2 47522.9 47523.5 47524.2 47524.9 47536.7 47548.5 47560.4 47573.1 47585.6 47595.8 47606.2 47617.8 47630 47642 47646 47650.4 47655 47659.7 47664.6 47670.4 47676.3 47682.2 47688.4 47694.8 47703.6 47712.7 47722.4 47733.3 47743.7 47751.3 47759.4 47768.3 47777.3 47786.4 47788.5 47791 47793.5 47796 47798.6 47804 47809.4 47814.8 47820.3 47826.4 47832.6 47839.1 47846 47854.1 47861.9 47867 47872 47878.3 47884.9 47891.6 47895.2 47899.9 47904.5 47909.2 47914.4 47914.7 47914.9 47915.2 47915.5 47915.8 47919.9 47924 47928.2 47932.3 47937.3 47939.6 47942.2 47945.2 47949 47952.9 47954 47955.1 47957.1 47959.8 47962.5 47962.5 47963 47963.8 47964.7 47966.1 47965.3 47965 47964.7 47964.4 47964 47964 47964 47964 47964 47964 47962.6 47961.3 47959.9 47958.5 47957.7 47954.6 47952 47949.4 47947.2 47945.3 47941 47936.7 47932.9 47929.9 47926.8 47921.3 47915.8 47910.8 47906.5 47902.3 47895.6 47889.1 47883 47877.3 47871.8 47864 47856.6 47849.4 47842.1 47835.5 47826.7 47818.4 47810 47801.6 47793.5 47784.9 47776.5 47768.1 47759.6 47749.8 47749 47748.2 47747.5 47746.7 47746 47735.5 47725.1 47714.6 47704.1 47693.8 47682.1 47670.6 47659.1 47647.6 47636.3 47623.3 47610.8 47598.3 47585.8 47573.5 47559.6 47545.9 47532.5 47519.1 47505.8 47490.9 47476.2 47461.8 47447.5 47433.2 47417.5 47401.7 47386.5 47371.2 47356.1 47339.5 47322.9 47306.7 47290.6 47274.5 47257.2 47239.8 47222.6 47205.7 47188.8 47170.7 47152.6 47134.5 47116.8 47099.1 47080.2 47061.4 47042.6 47024 47005.5 46986.1 46966.6 46947 46927.7 46908.5 46888.3 46868.2 46847.9 46827.9 46808 46787.2 46766.4 46745.6 46724.8 46704.3 46683 46661.6 46640.1 46618.8 46597.6 46575.7 46553.8 46531.8 46509.8 46488 46465.7 46443.1 46420.6 46398.1 46375.8 46352.9 46329.9 46306.9 46283.9 46261.1 46237.7 46214.2 46190.8 46167.3 46143.9 46120.2 46096.3 46072.3 46048.4 46024.6 46000.4 45976.1 45951.8 45927.5 45903.2 45878.6 45853.9 45829.2 45804.5 45779.9 45754.9 45729.9 45704.8 45679.7 45654.7 45629.4 45604 45578.6 45553.2 45527.8 45502.2 45476.5 45450.7 45425 45399.3 45373.4 45347.3 45321.3 45295.3 45269.3 45243.1 45216.8 45190.5 45164.2 45137.9 45111.3 45084.8 45058.2 45031.6 45005.1 44978.3 44951.5 44924.7 44897.8 44871 44844 44816.9 44789.9 44762.8 44735.8 44708.5 44681.2 44653.9 44626.6 44599.4 44571.9 44544.4 44516.9 44489.4 44461.9 44434.2 44406.5 44378.7 44351 44323.3 44295.4 44267.5 44239.6 44211.7 44183.8 44155.7 44127.6 44099.5 44071.3 44043.2 44015 43986.7 43958.4 43930.1 43901.8 43873.3 43844.8 43816.4 43787.9 43759.4 43730.8 43702.1 43673.4 43644.8 43616.1 43587.3 43558.5 43529.6 43500.8 43472 43443 43414 43385 43356 43327 43297.8 43268.6 43239.4 43210.3 43181.1 43151.7 43122.4 43093 43063.7 43034.3 43004.8 42975.3 42945.8 42916.3 42886.7 42857.1 42827.4 42797.7 42768 42738.3 42708.5 42678.6 42648.7 42618.9 42589 42559 42528.9 42498.9 42468.9 42438.8 42408.6 42378.4 42348.2 42318 42287.8 42257.4 42227 42196.6 42166.2 42135.8 42105.3 42074.7 42044.2 42013.6 41983 41952.3 41921.5 41890.8 41860 41829.3 41798.4 41767.4 41736.5 41705.6 41674.6 41643.5 41612.4 41581.3 41550.1 41519 41487.7 41456.4 41425.1 41393.8 41362.4 41330.9 41299.4 41267.9 41236.4 41204.9 41173.2 41141.5 41109.8 41078.1 41046.3 41014.4 40982.5 40950.6 40918.7 40886.8 40854.7 40822.6 40790.4 40758.3 40726.2 40693.9 40661.6 40629.2 40596.9 40564.5 40532 40499.5 40466.9 40434.4 40401.8 40369.1 40336.3 40303.6 40270.8 40238 40205.1 40172.1 40139.1 40106.1 40073.1 40039.9 40006.7 39973.5 39940.3 39907 39873.6 39840.2 39806.7 39773.3 39739.8 39706.2 39672.5 39638.8 39605.2 39571.4 39537.6 39503.7 39469.8 39435.8 39401.9 39367.8 39333.6 39299.5 39265.3 39231.1 39196.8 39162.4 39128 39093.6 39059.1 39024.5 38989.9 38955.2 38920.6 38885.8 38851 38816.1 38781.2 38746.3 38711.3 38676.2 38641.1 38605.9 38570.8 38535.5 38500.2 38464.8 38429.3 38393.9 38358.4 38322.8 38287.1 38251.5 38215.8 38180 38144.1 38108.2 38072.2 38036.3 38000.3 37964.1 37927.9 37891.7 37855.5 37819.2 37782.8 37746.3 37709.8 37673.3 37636.7 37600 37563.3 37526.5 37489.7 37452.9 37415.9 37378.9 37341.8 37304.7 37267.6 37230.4 37193.1 37155.7 37118.4 37081 37043.4 37005.8 36968.2 36930.6 36892.9 36855.1 36817.2 36779.3 36741.3 36703.4 36665.2 36627.1 36588.9 36550.7 36512.4 36474 36435.5 36397 36358.5 36319.9 36281.2 36242.5 36203.7 36164.9 36126 36087 36047.9 36008.8 35969.7 35930.6 35891.3 35851.9 35812.5 35773.1 35733.6 35694 35654.3 35614.7 35574.9 35535.1 35495.2 35455.3 35415.3 35375.2 35335.1 35294.9 35254.6 35214.3 35174 35133.6 35093 35052.5 35011.8 34971.2 34930.4 34889.6 34848.7 34807.8 34766.8 34725.7 34684.6 34643.4 34602.1 34560.8 34519.4 34477.9 34436.4 34394.8 34353.2 34311.5 34269.7 34227.9 34186 34144 34102 34059.9 34017.7 33975.5 33933.2 33890.9 33848.4 33805.9 33763.4 33720.7 33678.1 33635.3 33592.5 33549.6 33506.6 33463.6 33420.5 33377.3 33334.1 33290.8 33247.5 33204 33160.6 33117 33073.4 33029.7 32985.9 32942.1 32898.2 32854.2 32810.2 32766.1 32721.9 32677.7 32633.3 32589 32544.5 32500 32455.4 32410.8 32366.1 32321.2 32276.4 32231.5 32186.4 32141.4 32096.2 32051 32005.7 31960.4 31915 31869.5 31823.9 31778.3 31732.6 31686.9 31640.9 31595 31549 31503 31456.9 31410.6 31364.4 31318 31271.6 31225.2 31178.5 31131.9 31085.2 31038.4 30991.6 30944.6 30897.6 30850.5 30803.4 30756.2 30708.9 30661.5 30614.1 30566.6 30519 30471.3 30423.6 30375.8 30327.9 30280 30231.9 30183.8 30135.6 30087.3 30039.1 29990.6 29942.1 29893.5 29844.9 29796.3 29747.4 29698.5 29649.6 29600.6 29551.6 29502.3 29453.1 29403.7 29354.3 29304.9 29255.3 29205.7 29156 29106.2 29056.4 29006.4 28956.3 28906.2 28856.1 28805.9 28755.5 28705.1 28654.6 28604 28553.4 28502.6 28451.8 28400.9 28349.9 28298.9 28247.7 28196.5 28145.2 28093.8 28042.4 27990.8 27939.2 27887.5 27835.7 27783.9 27731.9 27679.8 27627.7 27575.5 27523.3 27470.9 27418.4 27365.9 27313.2 27260.6 27207.8 27154.9 27101.9 27048.9 26995.8 26942.5 26889.2 26835.9 26782.4 26728.9 26675.2 26621.5 26567.7 26513.8 26459.9 26405.8 26351.6 26297.4 26243.1 26188.8 26134.2 26079.7 26025 25970.4 25915.7 25860.7 25805.7 25750.7 25695.6 25640.6 25585.2 25529.9 25474.5 25419.2 25363.7 25308.1 25252.5 25196.9 25141.2 25085.6 25029.7 24973.9 24918.2 24862.4 24806.7 24750.8 24695 24639.3 24583.7 24528 24472.2 24417 24361.9 24306.8 24252.1 24197.4 24142.4 24087.4 24032.4 23977.1 23922.3 23873.7 23825 23776.4 23732.7 23683.5 23618.2 23552.7 23487.2 23412.7 23361.5 23331.1 23301 23271.3 23257.1 23252.9 23248.7 23244.6 23240.4 23238.9 23236.3 23231 23225.7 23220.5 23214.7 23187.8 23160.6 23133.2 23105.5 23061.8 22986 22917 22848 22779.2 22722.9 22671.7 22615.5 22559.1 22502.7 22440 22372.3 22304.2 22236.1 22168 22099.6 22028.3 21955 21881.8 21808.6 21733.2 21655 21575.2 21495.4 21415.6 21334.2 21249.9 21163.8 21077.6 20991.5 20903.5 20812.5 20719.6 20626.6 20533.6 20438.8 20340.7 20240.5 20140.2 20039.8 19937.4 19831.6 19723.4 19615.1 19506.7 19396.2 19281.9 19164.8 19047.6 18930.3 18810.5 18686.5 18559.7 18432.8 18305.8 18176.4 18042.3 17904.4 17766.2 17627.8 17486 17339 17189.3 17039.5 16889.5 16737.3 16579.4 16414.9 16250 16084.7 15913.3 15735.5 15557.4 15379.2 15201.1 15023 14838.4 14638.9 14438.5 14237.4 14022.2 13799 13585.9 13373.4 13161.4 12960.1 12751.2 12503.7 12254 12002.1 11712.8 11412.6 11157.3 10904.8 10655 10450.3 10237.7 9921.7 9598.12 9265.97 8833.28 8384.3 8071.54 7773.93 7494.34 7349.24 7198.2 6801.72 6357.26 5839.02 5089.65 4311.37 3779.22 3398.29 3250.94 3316.67 3382.97 3362.02 2777.14 1388.16 0