# vtk DataFile Version 2.0
track0
ASCII
DATASET POLYDATA
POINTS 12278 float
-0.0205 0.001 1e-05
-0.02052 0.000999216 1e-05
-0.02054 0.000998592 1e-05
-0.02056 0.000998126 1e-05
-0.02058 0.000997818 1e-05
-0.0206 0.000997665 1e-05
-0.0205 0.00367778 1e-05
-0.02052 0.00367703 1e-05
-0.02054 0.00367643 1e-05
-0.02056 0.00367599 1e-05
-0.02058 0.00367569 1e-05
-0.0206 0.00367554 1e-05
-0.0205 0.00635556 1e-05
-0.02052 0.00635527 1e-05
-0.02054 0.00635505 1e-05
-0.02056 0.00635488 1e-05
-0.02058 0.00635476 1e-05
-0.0206 0.00635471 1e-05
-0.0205 0.00903333 1e-05
-0.02052 0.00903311 1e-05
-0.02054 0.00903293 1e-05
-0.02056 0.0090328 1e-05
-0.02058 0.00903271 1e-05
-0.0206 0.00903266 1e-05
-0.0205 0.0117111 1e-05
-0.02052 0.0117111 1e-05
-0.02054 0.011711 1e-05
-0.02056 0.011711 1e-05
-0.02058 0.011711 1e-05
-0.0206 0.011711 1e-05
-0.0205 0.0143889 1e-05
-0.02052 0.014389 1e-05
-0.02054 0.014389 1e-05
-0.02056 0.0143891 1e-05
-0.02058 0.0143891 1e-05
-0.0206 0.0143891 1e-05
-0.0205 0.0170667 1e-05
-0.02052 0.017067 1e-05
-0.02054 0.0170672 1e-05
-0.02056 0.0170674 1e-05
-0.02058 0.0170675 1e-05
-0.0206 0.0170676 1e-05
-0.0205 0.0197444 1e-05
-0.02052 0.019745 1e-05
-0.02054 0.0197454 1e-05
-0.02056 0.0197457 1e-05
-0.02058 0.0197459 1e-05
-0.0206 0.019746 1e-05
-0.0205 0.0224222 1e-05
-0.02052 0.022423 1e-05
-0.02054 0.0224236 1e-05
-0.02056 0.0224241 1e-05
-0.02058 0.0224244 1e-05
-0.0206 0.0224245 1e-05
-0.0205 0.0251 1e-05
-0.02052 0.0251003 1e-05
-0.02054 0.0251005 1e-05
-0.02056 0.0251007 1e-05
-0.02058 0.0251008 1e-05
-0.0206 0.0251008 1e-05
-0.0205 0.001 1e-05
-0.0203632 0.00100536 1e-05
-0.0202266 0.00101331 1e-05
-0.0200901 0.00102296 1e-05
-0.0200427 0.00102682 1e-05
-0.0198376 0.00104418 1e-05
-0.0196338 0.00107322 1e-05
-0.0194327 0.00111734 1e-05
-0.0192368 0.00118024 1e-05
-0.0190172 0.00124951 1e-05
-0.0189002 0.00128348 1e-05
-0.0187827 0.00131598 1e-05
-0.0186649 0.001347 1e-05
-0.0185469 0.001377 1e-05
-0.0183807 0.00141936 1e-05
-0.0182041 0.00146458 1e-05
-0.0180267 0.00150692 1e-05
-0.0178487 0.0015464 1e-05
-0.0176703 0.00158389 1e-05
-0.0174976 0.00161991 1e-05
-0.0172846 0.00166394 1e-05
-0.0170715 0.00170741 1e-05
-0.0168583 0.00175029 1e-05
-0.0166449 0.00179219 1e-05
-0.0163945 0.00184007 1e-05
-0.0163234 0.00185324 1e-05
-0.0162522 0.00186629 1e-05
-0.016181 0.00187921 1e-05
-0.0161097 0.00189201 1e-05
-0.0160387 0.0019046 1e-05
-0.0157586 0.0019535 1e-05
-0.0154779 0.00199931 1e-05
-0.0151968 0.00204225 1e-05
-0.0149154 0.00208283 1e-05
-0.0146381 0.00212134 1e-05
-0.0143838 0.00215527 1e-05
-0.0141293 0.00218766 1e-05
-0.0138747 0.00221855 1e-05
-0.0136198 0.00224797 1e-05
-0.0132934 0.00228369 1e-05
-0.0132791 0.00228515 1e-05
-0.0132648 0.0022866 1e-05
-0.0132504 0.00228805 1e-05
-0.0132361 0.0022895 1e-05
-0.0132214 0.00229098 1e-05
-0.0129776 0.00231543 1e-05
-0.0127337 0.00233865 1e-05
-0.0124897 0.00236061 1e-05
-0.0122456 0.0023813 1e-05
-0.0120025 0.00240058 1e-05
-0.0117547 0.00241909 1e-05
-0.0115067 0.00243627 1e-05
-0.0112587 0.00245231 1e-05
-0.0110106 0.00246734 1e-05
-0.0107632 0.00248136 1e-05
-0.0105252 0.00249391 1e-05
-0.0102872 0.00250547 1e-05
-0.0100491 0.00251602 1e-05
-0.00981105 0.00252575 1e-05
-0.00957337 0.00253471 1e-05
-0.00934491 0.00254261 1e-05
-0.00911643 0.00254974 1e-05
-0.00888792 0.0025561 1e-05
-0.0086594 0.00256171 1e-05
-0.00843108 0.00256668 1e-05
-0.00821175 0.00257084 1e-05
-0.00799241 0.00257439 1e-05
-0.00777306 0.00257731 1e-05
-0.0075537 0.00257952 1e-05
-0.00733443 0.00258114 1e-05
-0.00712387 0.00258212 1e-05
-0.0069133 0.00258255 1e-05
-0.00670273 0.00258243 1e-05
-0.00649216 0.00258162 1e-05
-0.0062816 0.00258017 1e-05
-0.00607944 0.00257819 1e-05
-0.0058773 0.00257565 1e-05
-0.00567516 0.00257256 1e-05
-0.00547303 0.00256874 1e-05
-0.00527083 0.00256419 1e-05
-0.00507675 0.00255912 1e-05
-0.00488269 0.00255342 1e-05
-0.00468865 0.0025471 1e-05
-0.00449464 0.00253997 1e-05
-0.00430044 0.0025319 1e-05
-0.00411412 0.00252328 1e-05
-0.00392784 0.00251387 1e-05
-0.00374159 0.00250368 1e-05
-0.0035554 0.00249254 1e-05
-0.00336883 0.00248015 1e-05
-0.00318995 0.00246711 1e-05
-0.00301115 0.00245299 1e-05
-0.00283245 0.00243774 1e-05
-0.00265386 0.0024212 1e-05
-0.00247443 0.00240313 1e-05
-0.0023027 0.00238424 1e-05
-0.00213114 0.00236383 1e-05
-0.00195982 0.00234153 1e-05
-0.00178875 0.00231737 1e-05
-0.00161577 0.00229104 1e-05
-0.00161569 0.00229103 1e-05
-0.00161562 0.00229102 1e-05
-0.00161554 0.002291 1e-05
-0.00161546 0.00229099 1e-05
-0.00161538 0.00229098 1e-05
-0.00145059 0.00226407 1e-05
-0.0012862 0.00223481 1e-05
-0.00112223 0.00220325 1e-05
-0.000958714 0.00216945 1e-05
-0.000791418 0.00213235 1e-05
-0.000633135 0.00209423 1e-05
-0.000475556 0.0020533 1e-05
-0.000318719 0.00200962 1e-05
-0.000162835 0.00196265 1e-05
0 0.00190949 1e-05
3.73256e-05 0.0018963 1e-05
7.45513e-05 0.00188282 1e-05
0.000111678 0.00186908 1e-05
0.000148709 0.00185507 1e-05
0.000179009 0.00184337 1e-05
0.000248884 0.00181593 1e-05
0.000318349 0.00178746 1e-05
0.000387388 0.00175798 1e-05
0.000455988 0.00172749 1e-05
0.000528387 0.0016941 1e-05
0.000634886 0.00164312 1e-05
0.000740278 0.00158989 1e-05
0.00084451 0.00153442 1e-05
0.00094762 0.00147689 1e-05
0.00101981 0.00143468 1e-05
0.00102802 0.00142972 1e-05
0.00103623 0.00142474 1e-05
0.00104442 0.00141974 1e-05
0.00105261 0.00141473 1e-05
0.00106088 0.00140965 1e-05
0.00116821 0.00134346 1e-05
0.00127404 0.0012749 1e-05
0.00137827 0.00120394 1e-05
0.00148099 0.00113081 1e-05
0.0015966 0.00104511 1e-05
0.00159679 0.00104497 1e-05
0.00159697 0.00104482 1e-05
0.00159715 0.00104468 1e-05
0.00159734 0.00104454 1e-05
0.00159752 0.0010444 1e-05
0.00169216 0.000970842 1e-05
0.0017854 0.000895521 1e-05
0.00187716 0.000818403 1e-05
0.00196751 0.000739631 1e-05
0.00203789 0.000676366 1e-05
0.00205798 0.000657856 1e-05
0.00207798 0.000639256 1e-05
0.0020979 0.000620566 1e-05
0.00211776 0.000601814 1e-05
0.00213833 0.000582276 1e-05
0.00219144 0.00053148 1e-05
0.00224405 0.000480167 1e-05
0.00229614 0.000428329 1e-05
0.00234771 0.000375962 1e-05
0.00239398 0.000328254 1e-05
0.00245186 0.000267767 1e-05
0.00250909 0.00020668 1e-05
0.0025657 0.000145009 1e-05
0.00262179 8.28712e-05 1e-05
0.00268334 1.3514e-05 1e-05
0.00268569 1.08112e-05 1e-05
0.00268804 8.10739e-06 1e-05
0.00269039 5.40261e-06 1e-05
0.00269274 2.69683e-06 1e-05
0.00269507 0 1e-05
0.00275897 -7.37367e-05 1e-05
0.00282225 -0.000148005 1e-05
0.00288489 -0.000222813 1e-05
0.00294686 -0.000298172 1e-05
0.00300393 -0.000368654 1e-05
0.00304966 -0.000425967 1e-05
0.00309509 -0.000483525 1e-05
0.0031402 -0.000541326 1e-05
0.00318506 -0.000599323 1e-05
0.00323259 -0.000661337 1e-05
0.00325061 -0.000685088 1e-05
0.00326858 -0.000708879 1e-05
0.00328649 -0.00073271 1e-05
0.00330435 -0.00075658 1e-05
0.00332187 -0.000780089 1e-05
0.00339001 -0.000871876 1e-05
0.00345756 -0.000964106 1e-05
0.00352447 -0.00105679 1e-05
0.00359085 -0.00114986 1e-05
0.00365371 -0.00123896 1e-05
0.00368019 -0.00127689 1e-05
0.00370659 -0.00131487 1e-05
0.00373292 -0.0013529 1e-05
0.0037592 -0.00139097 1e-05
0.00378611 -0.00143008 1e-05
0.00383006 -0.00149416 1e-05
0.00387381 -0.00155838 1e-05
0.00391733 -0.00162275 1e-05
0.00396062 -0.00168728 1e-05
0.00400275 -0.00175043 1e-05
0.00407099 -0.00185331 1e-05
0.00413881 -0.00195645 1e-05
0.0042062 -0.00205988 1e-05
0.0042733 -0.00216349 1e-05
0.00434393 -0.00227321 1e-05
0.00434995 -0.00228263 1e-05
0.00435597 -0.00229205 1e-05
0.00436198 -0.00230147 1e-05
0.00436799 -0.0023109 1e-05
0.00437399 -0.0023203 1e-05
0.00445483 -0.00244725 1e-05
0.00453523 -0.00257448 1e-05
0.00461523 -0.00270197 1e-05
0.00469488 -0.00282967 1e-05
0.00477276 -0.00295497 1e-05
0.00479942 -0.00299803 1e-05
0.00482606 -0.0030411 1e-05
0.00485268 -0.00308419 1e-05
0.00487929 -0.00312728 1e-05
0.00490609 -0.0031707 1e-05
0.0049667 -0.00326889 1e-05
0.00502717 -0.00336716 1e-05
0.00508749 -0.00346553 1e-05
0.00514767 -0.00356398 1e-05
0.0052073 -0.00366161 1e-05
0.00526036 -0.00374854 1e-05
0.00531339 -0.0038355 1e-05
0.00536637 -0.00392249 1e-05
0.00541938 -0.00400945 1e-05
0.00547262 -0.00409668 1e-05
0.00551558 -0.00416697 1e-05
0.00555851 -0.00423728 1e-05
0.0056014 -0.0043076 1e-05
0.00564428 -0.00437794 1e-05
0.00568709 -0.00444811 1e-05
0.00575838 -0.00456487 1e-05
0.00582972 -0.0046816 1e-05
0.00590111 -0.00479831 1e-05
0.00597263 -0.00491493 1e-05
0.00604356 -0.00503011 1e-05
0.0060798 -0.00508874 1e-05
0.00611606 -0.00514736 1e-05
0.00615232 -0.00520598 1e-05
0.00618861 -0.00526459 1e-05
0.00622501 -0.00532326 1e-05
0.00630379 -0.00545003 1e-05
0.00638277 -0.00557668 1e-05
0.00646194 -0.00570321 1e-05
0.00654138 -0.00582957 1e-05
0.00661893 -0.00595211 1e-05
0.00666283 -0.00602103 1e-05
0.00670678 -0.00608991 1e-05
0.00675079 -0.00615876 1e-05
0.00679488 -0.00622756 1e-05
0.00683935 -0.00629671 1e-05
0.00691124 -0.00640811 1e-05
0.00698338 -0.00651935 1e-05
0.00705577 -0.00663041 1e-05
0.00712846 -0.00674129 1e-05
0.00719878 -0.00684774 1e-05
0.00726948 -0.006954 1e-05
0.0073404 -0.00706011 1e-05
0.00741154 -0.00716607 1e-05
0.007483 -0.00727183 1e-05
0.00755599 -0.00737909 1e-05
0.00760142 -0.00744538 1e-05
0.00764697 -0.00751157 1e-05
0.00769266 -0.00757768 1e-05
0.00773847 -0.0076437 1e-05
0.00778313 -0.00770771 1e-05
0.00790091 -0.00787567 1e-05
0.00801946 -0.00804309 1e-05
0.00813878 -0.00820996 1e-05
0.0082591 -0.00837611 1e-05
0.00837203 -0.00853001 1e-05
0.00837975 -0.00854038 1e-05
0.00838747 -0.00855076 1e-05
0.0083952 -0.00856113 1e-05
0.00840293 -0.0085715 1e-05
0.00841068 -0.00858189 1e-05
0.00852165 -0.00873051 1e-05
0.00863344 -0.0088785 1e-05
0.00874606 -0.00902585 1e-05
0.00885956 -0.00917254 1e-05
0.00896551 -0.00930762 1e-05
0.00903015 -0.00938896 1e-05
0.00909504 -0.00947009 1e-05
0.00916021 -0.00955101 1e-05
0.00922568 -0.00963168 1e-05
0.00929332 -0.00971439 1e-05
0.00934737 -0.00977996 1e-05
0.00940163 -0.00984537 1e-05
0.00945607 -0.00991061 1e-05
0.00951072 -0.00997569 1e-05
0.0095636 -0.0100383 1e-05
0.00968415 -0.01018 1e-05
[...]
POINT_DATA 12278
 FIELD attributes 2
p 1 12278 float
177012 177094 177167 177230 177284 177329
108946 108964 108980 108995 109007 109017
87752.6 87762.1 87771.5 87780.6 87789.6 87798
79934.8 79941.1 79947.4 79953.5 79959.5 79965.5
77143.9 77153.1 77162.4 77171.6 77180.8 77190
77561.3 77574.9 77588.4 77602 77615.6 77629.1
81094.5 81106.9 81119.1 81131.2 81143.1 81154.9
90920.9 90940.7 90959.7 90978 90995.6 91012.5
117353 117386 117416 117444 117470 117494
215472 215282 215090 214896 214700 214502
177012 173407 169080 164502 162835 158904 155521 152871 144705 134664 129221 123793 119854 119244 118392 112346 106447 102326 101430 100563 99580.9 98598.7 97172 95703.7 93988.1 93621.7 93254.6 92887.1 92406.1 91908.4 89988.8 88184.9 86670.9 85883.6 85106.8 84421.1 83756.3 83106.5 82454.7 81620.8 81585.9 81557 81528.9 81500.9 81472.1 80939.3 80407 79875.2 79343.9 78918.8 78492.6 78083.4 77685.7 77310.1 76944.2 76594.2 76243.9 75920.2 75618.7 75317.7 75028.2 74738.5 74460 74197.2 73934.6 73680.9 73427.2 73177.2 72941 72705 72476 72247.1 72016.6 71797.1 71578 71364.3 71150.8 70932.1 70721.3 70510.6 70303.5 70096.6 69883.6 69671.2 69459 69247.1 69035.7 68820.5 68592.5 68364.9 68132 67896.3 67652.2 67399.6 67133.7 66853.4 66539.7 66227.5 65916.9 65603.9 65603.7 65603.5 65603.3 65603.1 65602.9 65211.6 64826 64446.1 64047.9 63567.7 63052.2 62542.5 61841.4 61068.2 60255.1 60006.9 59769.1 59542.1 59315.7 59130.5 58573.4 58014.2 57452.9 56979.5 56511 55906.4 55303.7 54763.9 54222.8 53838.7 53780.5 53722.2 53666.7 53619 53570.7 53017.5 52457.1 51939.1 51466.7 50921.7 50920.6 50919.4 50918.4 50917.5 50916.6 50489.6 50055 49652.6 49317.2 49048.2 48948.9 48849.1 48778.2 48708.5 48635.8 48447.4 48256.6 48064.1 47919.8 47787.7 47614.9 47446.2 47306.5 47164.7 47005.3 46999 46992.6 46986.3 46980.5 46975.1 46869.7 46757.4 46642.7 46529.4 46422.4 46386.9 46350.1 46310.5 46270.1 46226.3 46206.2 46186 46165.6 46144.4 46123.4 46098 46071.3 46034.2 45991.9 45950.4 45952.8 45954.9 45954.2 45953.4 45952.4 45941.1 45929.4 45917.3 45902.3 45887.1 45896.9 45906 45910.6 45914.6 45918.3 45917.4 45916.6 45915.7 45914.7 45913.6 45927.2 45940.8 45953.4 45964.2 45974.5 45984.8 45995.1 46004.9 46014.6 46024.4 46035.9 46047.3 46058.5 46069.6 46080.6 46099 46117.4 46135.9 46154.4 46173.1 46181.6 46190.2 46198.9 46208 46217.1 46239.8 46262.5 46285.9 46309.8 46333.6 46341 46348.4 46356.2 46364.4 46372.7 46395.9 46419.3 46443.4 46468.7 46493.5 46502.4 46511.3 46521 46531.2 46541.5 46561.2 46580.9 46601.3 46623.2 46644.5 46658.4 46672.3 46688 46704.3 46721 46732.6 46744.1 46755.8 46768.5 46780.9 46802.9 46825 46850.5 46876.7 46902.6 46903.7 46904.9 46906.2 46907.6 46909 46930.2 46951.6 46973.4 46997.3 47019.6 47029.2 47038.8 47049.8 47060.9 47072.3 47082 47091.7 47101.5 47111.9 47122.1 47139.3 47156.6 47175.6 47195.4 47214.8 47217.4 47220 47223 47225.9 47228.9 47243.3 47257.7 47272.2 47287.8 47302.7 47316.5 47330.7 47346.2 47361.8 47378.7 47378.8 47378.8 47378.9 47379 47379 47393.6 47408.4 47423.2 47439.1 47454.4 47466.4 47479 47492.6 47506.3 47519.4 47520 47520.7 47521.4 47522.1 47522.8 47534.5 47546.4 47558.3 47570.9 47583.3 47593.6 47604 47615.6 47627.8 47639.8 47643.9 47648.3 47652.9 47657.6 47662.5 47668.4 47674.3 47680.1 47686.3 47692.6 47701.4 47710.6 47720.3 47731.2 47741.6 47749.2 47757.3 47766.3 47775.2 47784.4 47786.5 47789 47791.5 47794 47796.7 47802.1 47807.4 47812.8 47818.3 47824.3 47830.6 47837.1 47844.1 47852.1 47859.9 47865 47870.1 47876.3 47883 47889.7 47893.3 47898 47902.7 47907.3 47912.6 47912.9 47913.1 47913.3 47913.6 47913.9 47918 47922.2 47926.3 47930.4 47935.5 47937.8 47940.4 47943.3 47947.2 47951.1 47952.2 47953.4 47955.3 47958.1 47960.8 47960.7 47961.2 47962.1 47963 47964.4 47963.6 47963.3 47963 47962.7 47962.4 47962.3 47962.3 47962.3 47962.3 47962.3 47961 47959.6 47958.3 47956.9 47956.1 47952.9 47950.4 47947.8 47945.6 47943.7 47939.4 47935.1 47931.4 47928.3 47925.3 47919.8 47914.2 47909.3 47905 47900.8 47894.1 47887.6 47881.5 47875.8 47870.3 47862.6 47855.2 47848 47840.7 47834.1 47825.3 47817 47808.6 47800.2 47792.1 47783.5 47775.1 47766.6 47758.2 47748.3 47747.6 47746.8 47746.1 47745.4 47744.7 47734.2 47723.8 47713.4 47702.9 47692.6 47680.8 47669.3 47657.8 47646.3 47635 47622.1 47609.6 47597.1 47584.6 47572.3 47558.4 47544.8 47531.3 47517.9 47504.6 47489.8 47475.1 47460.7 47446.4 47432.1 47416.4 47400.7 47385.4 47370.2 47355 47338.5 47321.9 47305.7 47289.6 47273.5 47256.2 47238.8 47221.7 47204.7 47187.8 47169.7 47151.6 47133.6 47115.9 47098.1 47079.3 47060.5 47041.7 47023.1 47004.7 46985.2 46965.7 46946.1 46926.8 46907.6 46887.5 46867.3 46847.1 46827.1 46807.2 46786.4 46765.6 46744.8 46724.1 46703.5 46682.2 46660.8 46639.4 46618 46596.8 46575 46553 46531 46509.1 46487.3 46465 46442.4 46419.9 46397.4 46375.1 46352.3 46329.2 46306.2 46283.2 46260.4 46237.1 46213.6 46190.1 46166.6 46143.3 46119.5 46095.6 46071.7 46047.8 46024 45999.8 45975.5 45951.2 45926.9 45902.7 45878.1 45853.4 45828.7 45804 45779.3 45754.4 45729.3 45704.2 45679.2 45654.2 45628.9 45603.5 45578.1 45552.7 45527.3 45501.7 45476 45450.2 45424.5 45398.8 45372.9 45346.9 45320.9 45294.8 45268.8 45242.6 45216.3 45190 45163.7 45137.4 45110.9 45084.3 45057.8 45031.2 45004.7 44977.9 44951.1 44924.2 44897.4 44870.6 44843.6 44816.5 44789.5 44762.4 44735.4 44708.1 44680.8 44653.5 44626.3 44599 44571.5 44544 44516.5 44489 44461.5 44433.8 44406.1 44378.4 44350.7 44323 44295.1 44267.2 44239.3 44211.3 44183.4 44155.3 44127.2 44099.1 44071 44042.9 44014.7 43986.4 43958.1 43929.8 43901.5 43873 43844.5 43816.1 43787.6 43759.1 43730.5 43701.8 43673.2 43644.5 43615.8 43587 43558.2 43529.4 43500.5 43471.7 43442.7 43413.7 43384.7 43355.7 43326.7 43297.5 43268.4 43239.2 43210 43180.8 43151.5 43122.2 43092.8 43063.5 43034.1 43004.6 42975.1 42945.6 42916.1 42886.5 42856.9 42827.2 42797.5 42767.8 42738.1 42708.3 42678.4 42648.5 42618.7 42588.8 42558.8 42528.8 42498.7 42468.7 42438.6 42408.4 42378.2 42348 42317.8 42287.6 42257.2 42226.8 42196.5 42166.1 42135.7 42105.1 42074.6 42044 42013.4 41982.8 41952.1 41921.4 41890.6 41859.9 41829.1 41798.2 41767.3 41736.3 41705.4 41674.4 41643.4 41612.2 41581.1 41550 41518.8 41487.6 41456.3 41424.9 41393.6 41362.3 41330.8 41299.3 41267.8 41236.3 41204.7 41173.1 41141.4 41109.7 41078 41046.2 41014.3 40982.4 40950.5 40918.6 40886.7 40854.6 40822.5 40790.3 40758.2 40726.1 40693.8 40661.5 40629.1 40596.8 40564.4 40531.9 40499.4 40466.9 40434.3 40401.7 40369 40336.3 40303.5 40270.7 40237.9 40205 40172 40139 40106 40073 40039.9 40006.6 39973.4 39940.2 39907 39873.6 39840.1 39806.7 39773.3 39739.8 39706.1 39672.5 39638.8 39605.1 39571.4 39537.5 39503.6 39469.7 39435.8 39401.8 39367.7 39333.6 39299.4 39265.3 39231.1 39196.7 39162.3 39127.9 39093.5 39059.1 39024.5 38989.8 38955.2 38920.5 38885.8 38851 38816.1 38781.2 38746.3 38711.3 38676.2 38641.1 38605.9 38570.7 38535.5 38500.2 38464.7 38429.3 38393.9 38358.4 38322.8 38287.1 38251.4 38215.8 38180 38144.1 38108.2 38072.2 38036.3 38000.3 37964.1 37927.9 37891.7 37855.5 37819.2 37782.7 37746.3 37709.8 37673.3 37636.7 37600 37563.3 37526.5 37489.7 37452.9 37415.9 37378.9 37341.8 37304.7 37267.6 37230.4 37193.1 37155.7 37118.4 37081 37043.4 37005.8 36968.2 36930.6 36892.9 36855.1 36817.2 36779.3 36741.3 36703.4 36665.2 36627.1 36588.9 36550.7 36512.4 36474 36435.5 36397 36358.5 36319.9 36281.2 36242.5 36203.7 36164.9 36126 36087 36047.9 36008.9 35969.7 35930.6 35891.3 35851.9 35812.5 35773.1 35733.6 35694 35654.4 35614.7 35574.9 35535.1 35495.2 35455.3 35415.3 35375.2 35335.1 35294.9 35254.6 35214.3 35174 35133.6 35093 35052.5 35011.8 34971.2 34930.5 34889.6 34848.7 34807.8 34766.8 34725.7 34684.6 34643.4 34602.1 34560.8 34519.5 34478 34436.4 34394.9 34353.2 34311.6 34269.7 34227.9 34186 34144 34102 34059.9 34017.7 33975.5 33933.2 33890.9 33848.4 33805.9 33763.4 33720.7 33678.1 33635.3 33592.5 33549.6 33506.6 33463.6 33420.5 33377.3 33334.1 33290.8 33247.5 33204 33160.6 33117 33073.4 33029.7 32985.9 32942.1 32898.2 32854.2 32810.2 32766.1 32721.9 32677.7 32633.3 32589 32544.5 32500 32455.4 32410.8 32366.1 32321.2 32276.4 32231.5 32186.4 32141.4 32096.2 32051 32005.7 31960.4 31915 31869.5 31823.9 31778.3 31732.6 31686.8 31640.9 31595 31549 31503 31456.9 31410.6 31364.4 31318 31271.6 31225.2 31178.5 31131.9 31085.2 31038.4 30991.6 30944.6 30897.6 30850.5 30803.4 30756.2 30708.9 30661.5 30614.1 30566.5 30519 30471.3 30423.6 30375.8 30327.9 30280 30231.9 30183.8 30135.6 30087.3 30039.1 29990.6 29942.1 29893.5 29844.9 29796.3 29747.4 29698.5 29649.6 29600.6 29551.6 29502.3 29453.1 29403.7 29354.3 29304.9 29255.3 29205.7 29156 29106.2 29056.4 29006.4 28956.3 28906.2 28856.1 28805.9 28755.5 28705 28654.5 28604 28553.4 28502.6 28451.8 28400.9 28349.9 28298.9 28247.7 28196.5 28145.2 28093.8 28042.4 27990.8 27939.2 27887.5 27835.7 27783.9 27731.9 27679.8 27627.7 27575.5 27523.3 27470.8 27418.4 27365.9 27313.2 27260.6 27207.7 27154.9 27101.9 27048.9 26995.8 26942.5 26889.2 26835.9 26782.4 26728.9 26675.2 26621.5 26567.7 26513.8 26459.9 26405.8 26351.6 26297.4 26243.1 26188.8 26134.2 26079.6 26025 25970.4 25915.6 25860.7 25805.7 25750.7 25695.6 25640.6 25585.2 25529.9 25474.5 25419.2 25363.7 25308.1 25252.4 25196.9 25141.2 25085.6 25029.7 24973.9 24918.2 24862.4 24806.7 24750.8 24695 24639.3 24583.6 24528 24472.2 24417 24361.9 24306.8 24252.1 24197.4 24142.4 24087.4 24032.4 23977 23922.3 23873.7 23825 23776.4 23732.7 23683.5 23618.2 23552.7 23487.2 23412.7 23361.5 23331.1 23301 23271.3 23257 23252.9 23248.7 23244.6 23240.4 23238.9 23236.3 23231 23225.7 23220.5 23214.8 23187.8 23160.6 23133.2 23105.5 23061.8 22985.9 22917 22848 22779.2 22722.9 22671.7 22615.5 22559.1 22502.7 22440 22372.3 22304.2 22236.1 22168 22099.5 22028.3 21955 21881.8 21808.6 21733.2 21655 21575.2 21495.4 21415.6 21334.2 21249.9 21163.8 21077.6 20991.5 20903.5 20812.5 20719.6 20626.6 20533.6 20438.8 20340.7 20240.5 20140.2 20039.8 19937.4 19831.6 19723.4 19615.1 19506.7 19396.2 19281.9 19164.8 19047.6 18930.3 18810.5 18686.5 18559.7 18432.8 18305.8 18176.4 18042.3 17904.4 17766.2 17627.8 17486 17339 17189.3 17039.5 16889.5 16737.3 16579.4 16414.9 16250 16084.7 15913.3 15735.5 15557.4 15379.2 15201.1 15023 14838.4 14638.9 14438.5 14237.4 14022.2 13799 13585.9 13373.4 13161.4 12960.1 12751.2 12503.7 12253.9 12002.1 11712.8 11412.6 11157.3 10904.8 10655 10450.3 10237.7 9921.7 9598.13 9265.97 8833.29 8384.3 8071.55 7773.94 7494.35 7349.25 7198.21 6801.73 6357.27 5839.04 5089.67 4311.38 3779.23 3398.31 3250.95 3316.68 3382.98 3362.03 2777.14 1388.16 0