# vtk DataFile Version 2.0
track0
ASCII
DATASET POLYDATA
POINTS 12278 float
-0.0205 0.001 1e-05
-0.02052 0.000999216 1e-05
-0.02054 0.000998592 1e-05
-0.02056 0.000998126 1e-05
-0.02058 0.000997818 1e-05
-0.0206 0.000997665 1e-05
-0.0205 0.00367778 1e-05
-0.02052 0.00367703 1e-05
-0.02054 0.00367643 1e-05
-0.02056 0.00367599 1e-05
-0.02058 0.00367569 1e-05
-0.0206 0.00367554 1e-05
-0.0205 0.00635556 1e-05
-0.02052 0.00635527 1e-05
-0.02054 0.00635505 1e-05
-0.02056 0.00635488 1e-05
-0.02058 0.00635476 1e-05
-0.0206 0.00635471 1e-05
-0.0205 0.00903333 1e-05
-0.02052 0.00903311 1e-05
-0.02054 0.00903293 1e-05
-0.02056 0.0090328 1e-05
-0.02058 0.00903271 1e-05
-0.0206 0.00903266 1e-05
-0.0205 0.0117111 1e-05
-0.02052 0.0117111 1e-05
-0.02054 0.011711 1e-05
-0.02056 0.011711 1e-05
-0.02058 0.011711 1e-05
-0.0206 0.011711 1e-05
-0.0205 0.0143889 1e-05
-0.02052 0.014389 1e-05
-0.02054 0.014389 1e-05
-0.02056 0.0143891 1e-05
-0.02058 0.0143891 1e-05
-0.0206 0.0143891 1e-05
-0.0205 0.0170667 1e-05
-0.02052 0.017067 1e-05
-0.02054 0.0170672 1e-05
-0.02056 0.0170674 1e-05
-0.02058 0.0170675 1e-05
-0.0206 0.0170676 1e-05
-0.0205 0.0197444 1e-05
-0.02052 0.019745 1e-05
-0.02054 0.0197454 1e-05
-0.02056 0.0197457 1e-05
-0.02058 0.0197459 1e-05
-0.0206 0.019746 1e-05
-0.0205 0.0224222 1e-05
-0.02052 0.022423 1e-05
-0.02054 0.0224236 1e-05
-0.02056 0.0224241 1e-05
-0.02058 0.0224244 1e-05
-0.0206 0.0224245 1e-05
-0.0205 0.0251 1e-05
-0.02052 0.0251003 1e-05
-0.02054 0.0251005 1e-05
-0.02056 0.0251007 1e-05
-0.02058 0.0251008 1e-05
-0.0206 0.0251008 1e-05
-0.0205 0.001 1e-05
-0.0203632 0.00100536 1e-05
-0.0202266 0.00101331 1e-05
-0.0200901 0.00102296 1e-05
-0.0200427 0.00102682 1e-05
-0.0198376 0.00104418 1e-05
-0.0196338 0.00107322 1e-05
-0.0194327 0.00111734 1e-05
-0.0192368 0.00118024 1e-05
-0.0190172 0.00124951 1e-05
-0.0189002 0.00128348 1e-05
-0.0187827 0.00131598 1e-05
-0.0186649 0.001347 1e-05
-0.0185469 0.001377 1e-05
-0.0183807 0.00141936 1e-05
-0.0182041 0.00146458 1e-05
-0.0180267 0.00150692 1e-05
-0.0178487 0.0015464 1e-05
-0.0176703 0.00158389 1e-05
-0.0174976 0.00161991 1e-05
-0.0172846 0.00166394 1e-05
-0.0170715 0.00170741 1e-05
-0.0168583 0.00175029 1e-05
-0.0166449 0.00179219 1e-05
-0.0163945 0.00184007 1e-05
-0.0163234 0.00185324 1e-05
-0.0162522 0.00186629 1e-05
-0.016181 0.00187921 1e-05
-0.0161097 0.00189201 1e-05
-0.0160387 0.0019046 1e-05
-0.0157586 0.0019535 1e-05
-0.0154779 0.00199931 1e-05
-0.0151968 0.00204225 1e-05
-0.0149154 0.00208283 1e-05
-0.0146381 0.00212134 1e-05
-0.0143838 0.00215527 1e-05
-0.0141293 0.00218766 1e-05
-0.0138747 0.00221855 1e-05
-0.0136198 0.00224797 1e-05
-0.0132934 0.00228369 1e-05
-0.0132791 0.00228515 1e-05
-0.0132648 0.0022866 1e-05
-0.0132504 0.00228805 1e-05
-0.0132361 0.0022895 1e-05
-0.0132214 0.00229098 1e-05
-0.0129776 0.00231543 1e-05
-0.0127337 0.00233865 1e-05
-0.0124897 0.00236061 1e-05
-0.0122456 0.0023813 1e-05
-0.0120025 0.00240058 1e-05
-0.0117547 0.00241909 1e-05
-0.0115067 0.00243627 1e-05
-0.0112587 0.00245231 1e-05
-0.0110106 0.00246734 1e-05
-0.0107632 0.00248136 1e-05
-0.0105252 0.00249391 1e-05
-0.0102872 0.00250547 1e-05
-0.0100491 0.00251602 1e-05
-0.00981105 0.00252575 1e-05
-0.00957337 0.00253471 1e-05
-0.00934491 0.00254261 1e-05
-0.00911643 0.00254974 1e-05
-0.00888792 0.0025561 1e-05
-0.0086594 0.00256171 1e-05
-0.00843108 0.00256668 1e-05
-0.00821175 0.00257084 1e-05
-0.00799241 0.00257439 1e-05
-0.00777306 0.00257731 1e-05
-0.0075537 0.00257952 1e-05
-0.00733443 0.00258114 1e-05
-0.00712387 0.00258212 1e-05
-0.0069133 0.00258255 1e-05
-0.00670273 0.00258243 1e-05
-0.00649216 0.00258162 1e-05
-0.0062816 0.00258017 1e-05
-0.00607944 0.00257819 1e-05
-0.0058773 0.00257565 1e-05
-0.00567516 0.00257256 1e-05
-0.00547303 0.00256874 1e-05
-0.00527083 0.00256419 1e-05
-0.00507675 0.00255912 1e-05
-0.00488269 0.00255342 1e-05
-0.00468865 0.0025471 1e-05
-0.00449464 0.00253997 1e-05
-0.00430044 0.0025319 1e-05
-0.00411412 0.00252328 1e-05
-0.00392784 0.00251387 1e-05
-0.00374159 0.00250368 1e-05
-0.0035554 0.00249254 1e-05
-0.00336883 0.00248015 1e-05
-0.00318995 0.00246711 1e-05
-0.00301115 0.00245299 1e-05
-0.00283245 0.00243774 1e-05
-0.00265386 0.0024212 1e-05
-0.00247443 0.00240313 1e-05
-0.0023027 0.00238424 1e-05
-0.00213114 0.00236383 1e-05
-0.00195982 0.00234153 1e-05
-0.00178875 0.00231737 1e-05
-0.00161577 0.00229104 1e-05
-0.00161569 0.00229103 1e-05
-0.00161562 0.00229102 1e-05
-0.00161554 0.002291 1e-05
-0.00161546 0.00229099 1e-05
-0.00161538 0.00229098 1e-05
-0.00145059 0.00226407 1e-05
-0.0012862 0.00223481 1e-05
-0.00112223 0.00220325 1e-05
-0.000958714 0.00216945 1e-05
-0.000791418 0.00213235 1e-05
-0.000633135 0.00209423 1e-05
-0.000475556 0.0020533 1e-05
-0.000318719 0.00200962 1e-05
-0.000162835 0.00196265 1e-05
0 0.00190949 1e-05
3.73256e-05 0.0018963 1e-05
7.45513e-05 0.00188282 1e-05
0.000111678 0.00186908 1e-05
0.000148709 0.00185507 1e-05
0.000179009 0.00184337 1e-05
0.000248884 0.00181593 1e-05
0.000318349 0.00178746 1e-05
0.000387388 0.00175798 1e-05
0.000455988 0.00172749 1e-05
0.000528387 0.0016941 1e-05
0.000634886 0.00164312 1e-05
0.000740278 0.00158989 1e-05
0.00084451 0.00153442 1e-05
0.00094762 0.00147689 1e-05
0.00101981 0.00143468 1e-05
0.00102802 0.00142972 1e-05
0.00103623 0.00142474 1e-05
0.00104442 0.00141974 1e-05
0.00105261 0.00141473 1e-05
0.00106088 0.00140965 1e-05
0.00116821 0.00134346 1e-05
0.00127404 0.0012749 1e-05
0.00137827 0.00120394 1e-05
0.00148099 0.00113081 1e-05
0.0015966 0.00104511 1e-05
0.00159679 0.00104497 1e-05
0.00159697 0.00104482 1e-05
0.00159715 0.00104468 1e-05
0.00159734 0.00104454 1e-05
0.00159752 0.0010444 1e-05
0.00169216 0.000970842 1e-05
0.0017854 0.000895521 1e-05
0.00187716 0.000818403 1e-05
0.00196751 0.000739631 1e-05
0.00203789 0.000676366 1e-05
0.00205798 0.000657856 1e-05
0.00207798 0.000639256 1e-05
0.0020979 0.000620566 1e-05
0.00211776 0.000601814 1e-05
0.00213833 0.000582276 1e-05
0.00219144 0.00053148 1e-05
0.00224405 0.000480167 1e-05
0.00229614 0.000428329 1e-05
0.00234771 0.000375962 1e-05
0.00239398 0.000328254 1e-05
0.00245186 0.000267767 1e-05
0.00250909 0.00020668 1e-05
0.0025657 0.000145009 1e-05
0.00262179 8.28712e-05 1e-05
0.00268334 1.3514e-05 1e-05
0.00268569 1.08112e-05 1e-05
0.00268804 8.10739e-06 1e-05
0.00269039 5.40261e-06 1e-05
0.00269274 2.69683e-06 1e-05
0.00269507 0 1e-05
0.00275897 -7.37367e-05 1e-05
0.00282225 -0.000148005 1e-05
0.00288489 -0.000222813 1e-05
0.00294686 -0.000298172 1e-05
0.00300393 -0.000368654 1e-05
0.00304966 -0.000425967 1e-05
0.00309509 -0.000483525 1e-05
0.0031402 -0.000541326 1e-05
0.00318506 -0.000599323 1e-05
0.00323259 -0.000661337 1e-05
0.00325061 -0.000685088 1e-05
0.00326858 -0.000708879 1e-05
0.00328649 -0.00073271 1e-05
0.00330435 -0.00075658 1e-05
0.00332187 -0.000780089 1e-05
0.00339001 -0.000871876 1e-05
0.00345756 -0.000964106 1e-05
0.00352447 -0.00105679 1e-05
0.00359085 -0.00114986 1e-05
0.00365371 -0.00123896 1e-05
0.00368019 -0.00127689 1e-05
0.00370659 -0.00131487 1e-05
0.00373292 -0.0013529 1e-05
0.0037592 -0.00139097 1e-05
0.00378611 -0.00143008 1e-05
0.00383006 -0.00149416 1e-05
0.00387381 -0.00155838 1e-05
0.00391733 -0.00162275 1e-05
0.00396062 -0.00168728 1e-05
0.00400275 -0.00175043 1e-05
0.00407099 -0.00185331 1e-05
0.00413881 -0.00195645 1e-05
0.0042062 -0.00205988 1e-05
0.0042733 -0.00216349 1e-05
0.00434393 -0.00227321 1e-05
0.00434995 -0.00228263 1e-05
0.00435597 -0.00229205 1e-05
0.00436198 -0.00230147 1e-05
0.00436799 -0.0023109 1e-05
0.00437399 -0.0023203 1e-05
0.00445483 -0.00244725 1e-05
0.00453523 -0.00257448 1e-05
0.00461523 -0.00270197 1e-05
0.00469488 -0.00282967 1e-05
0.00477276 -0.00295497 1e-05
0.00479942 -0.00299803 1e-05
0.00482606 -0.0030411 1e-05
0.00485268 -0.00308419 1e-05
0.00487929 -0.00312728 1e-05
0.00490609 -0.0031707 1e-05
0.0049667 -0.00326889 1e-05
0.00502717 -0.00336716 1e-05
0.00508749 -0.00346553 1e-05
0.00514767 -0.00356398 1e-05
0.0052073 -0.00366161 1e-05
0.00526036 -0.00374854 1e-05
0.00531339 -0.0038355 1e-05
0.00536637 -0.00392249 1e-05
0.00541938 -0.00400945 1e-05
0.00547262 -0.00409668 1e-05
0.00551558 -0.00416697 1e-05
0.00555851 -0.00423728 1e-05
0.0056014 -0.0043076 1e-05
0.00564428 -0.00437794 1e-05
0.00568709 -0.00444811 1e-05
0.00575838 -0.00456487 1e-05
0.00582972 -0.0046816 1e-05
0.00590111 -0.00479831 1e-05
0.00597263 -0.00491493 1e-05
0.00604356 -0.00503011 1e-05
0.0060798 -0.00508874 1e-05
0.00611606 -0.00514736 1e-05
0.00615232 -0.00520598 1e-05
0.00618861 -0.00526459 1e-05
0.00622501 -0.00532326 1e-05
0.00630379 -0.00545003 1e-05
0.00638277 -0.00557668 1e-05
0.00646194 -0.00570321 1e-05
0.00654138 -0.00582957 1e-05
0.00661893 -0.00595211 1e-05
0.00666283 -0.00602103 1e-05
0.00670678 -0.00608991 1e-05
0.00675079 -0.00615876 1e-05
0.00679488 -0.00622756 1e-05
0.00683935 -0.00629671 1e-05
0.00691124 -0.00640811 1e-05
0.00698338 -0.00651935 1e-05
0.00705577 -0.00663041 1e-05
0.00712846 -0.00674129 1e-05
0.00719878 -0.00684774 1e-05
0.00726948 -0.006954 1e-05
0.0073404 -0.00706011 1e-05
0.00741154 -0.00716607 1e-05
0.007483 -0.00727183 1e-05
0.00755599 -0.00737909 1e-05
0.00760142 -0.00744538 1e-05
0.00764697 -0.00751157 1e-05
0.00769266 -0.00757768 1e-05
0.00773847 -0.0076437 1e-05
0.00778313 -0.00770771 1e-05
0.00790091 -0.00787567 1e-05
0.00801946 -0.00804309 1e-05
0.00813878 -0.00820996 1e-05
0.0082591 -0.00837611 1e-05
0.00837203 -0.00853001 1e-05
0.00837975 -0.00854038 1e-05
0.00838747 -0.00855076 1e-05
0.0083952 -0.00856113 1e-05
0.00840293 -0.0085715 1e-05
0.00841068 -0.00858189 1e-05
0.00852165 -0.00873051 1e-05
0.00863344 -0.0088785 1e-05
0.00874606 -0.00902585 1e-05
0.00885956 -0.00917254 1e-05
0.00896551 -0.00930762 1e-05
0.00903015 -0.00938896 1e-05
0.00909504 -0.00947009 1e-05
0.00916021 -0.00955101 1e-05
0.00922568 -0.00963168 1e-05
0.00929332 -0.00971439 1e-05
0.00934737 -0.00977996 1e-05
0.00940163 -0.00984537 1e-05
0.00945607 -0.00991061 1e-05
0.00951072 -0.00997569 1e-05
0.0095636 -0.0100383 1e-05
0.00968415 -0.01018 1e-05
[...]
POINT_DATA 12278
 FIELD attributes 1
U 3 12278 float
9.72339 	0.381311 	0 9.77871 	0.305049 	0 9.83405 	0.228765 	0 9.8894 	0.152465 	0 9.94476 	0.0761532 	0 10 	0 	0
10.0671 	0.375483 	0 10.0537 	0.300387 	0 10.0403 	0.225271 	0 10.0268 	0.150141 	0 10.0134 	0.0750009 	0 10 	0 	0
10.0364 	0.141572 	0 10.0291 	0.113304 	0 10.0218 	0.085089 	0 10.0145 	0.0569263 	0 10.0071 	0.0288164 	0 10 	0 	0
10.0137 	0.111519 	0 10.011 	0.0892151 	0 10.0082 	0.0669109 	0 10.0055 	0.0446062 	0 10.0027 	0.0223012 	0 10 	0 	0
10.0097 	0.0196535 	0 10.0078 	0.0157228 	0 10.0058 	0.0117921 	0 10.0039 	0.00786137 	0 10.0019 	0.00393068 	0 10 	0 	0
10.0102 	-0.0372874 	0 10.0082 	-0.02983 	0 10.0061 	-0.0223724 	0 10.0041 	-0.0149149 	0 10.002 	-0.00745739 	0 10 	0 	0
10.0174 	-0.148996 	0 10.0139 	-0.119197 	0 10.0105 	-0.0893967 	0 10.007 	-0.0595953 	0 10.0035 	-0.0297932 	0 10 	0 	0
10.0362 	-0.265901 	0 10.029 	-0.212721 	0 10.0217 	-0.159534 	0 10.0145 	-0.106342 	0 10.0072 	-0.053146 	0 10 	0 	0
10.0563 	-0.387167 	0 10.045 	-0.309734 	0 10.0338 	-0.23228 	0 10.0225 	-0.15481 	0 10.0112 	-0.0773281 	0 10 	0 	0
8.30133 	-0.114495 	0 8.4287 	-0.091596 	0 8.55659 	-0.0686962 	0 8.68498 	-0.0457957 	0 8.81385 	-0.0228949 	0 8.94315 	0 	0
9.72339 	0.381311 	0 9.5415 	0.555241 	0 9.39671 	0.663651 	0 9.26203 	0.754272 	0 9.2183 	0.780385 	0 8.95344 	1.27614 	0 8.70578 	1.91036 	0 8.48173 	2.72184 	0 8.46724 	2.67123 	0 8.47252 	2.45986 	0 8.50117 	2.35314 	0 8.52498 	2.2443 	0 8.51221 	2.16311 	0 8.42487 	2.14738 	0 8.30214 	2.12559 	0 8.30117 	1.9821 	0 8.28715 	1.83798 	0 8.21181 	1.72569 	0 8.035 	1.67507 	0 7.86306 	1.62575 	0 7.68323 	1.56759 	0 7.50177 	1.50875 	0 7.42793 	1.45839 	0 7.36148 	1.40771 	0 7.27865 	1.34671 	0 7.22249 	1.32376 	0 7.16614 	1.3007 	0 7.10958 	1.27753 	0 7.07928 	1.2544 	0 7.05291 	1.23121 	0 6.97394 	1.13838 	0 6.88841 	1.05226 	0 6.79883 	0.980329 	0 6.71191 	0.932083 	0 6.6228 	0.883658 	0 6.55089 	0.833775 	0 6.49228 	0.787587 	0 6.44246 	0.743855 	0 6.3887 	0.69909 	0 6.31694 	0.642265 	0 6.31477 	0.64017 	0 6.3132 	0.638346 	0 6.31172 	0.636559 	0 6.31023 	0.634771 	0 6.30868 	0.632932 	0 6.27132 	0.597061 	0 6.23151 	0.560863 	0 6.18922 	0.524331 	0 6.1444 	0.487462 	0 6.10943 	0.456251 	0 6.07602 	0.420969 	0 6.04571 	0.390994 	0 6.01701 	0.364549 	0 5.99443 	0.339599 	0 5.97316 	0.315194 	0 5.95246 	0.28906 	0 5.92972 	0.262717 	0 5.91348 	0.241655 	0 5.9034 	0.222651 	0 5.89182 	0.203583 	0 5.87917 	0.183516 	0 5.86498 	0.163349 	0 5.85627 	0.143785 	0 5.85337 	0.127395 	0 5.8492 	0.11098 	0 5.84297 	0.0943443 	0 5.8355 	0.0776676 	0 5.83342 	0.0589648 	0 5.83631 	0.0430903 	0 5.83801 	0.0272163 	0 5.83718 	0.0119181 	0 5.83536 	-0.00344898 	0 5.83922 	-0.0225511 	0 5.84733 	-0.0400434 	0 5.85426 	-0.0574816 	0 5.85862 	-0.0735492 	0 5.86186 	-0.0895908 	0 5.87123 	-0.110979 	0 5.88469 	-0.132518 	0 5.89666 	-0.153986 	0 5.90652 	-0.173353 	0 5.91509 	-0.192651 	0 5.92941 	-0.218111 	0 5.94829 	-0.247068 	0 5.96529 	-0.275886 	0 5.98123 	-0.302119 	0 5.99553 	-0.328203 	0 6.01457 	-0.359818 	0 6.03867 	-0.400984 	0 6.06028 	-0.441907 	0 6.08262 	-0.480372 	0 6.10482 	-0.520997 	0 6.13013 	-0.567656 	0 6.15461 	-0.619728 	0 6.17874 	-0.679542 	0 6.20613 	-0.73854 	0 6.23747 	-0.811935 	0 6.26495 	-0.884794 	0 6.2886 	-0.957114 	0 6.30871 	-1.02982 	0 6.30873 	-1.02986 	0 6.30874 	-1.02992 	0 6.30875 	-1.02997 	0 6.30877 	-1.03002 	0 6.30878 	-1.03007 	0 6.33258 	-1.12727 	0 6.35112 	-1.22236 	0 6.36454 	-1.31538 	0 6.3753 	-1.41408 	0 6.38859 	-1.5383 	0 6.40639 	-1.66405 	0 6.41795 	-1.7877 	0 6.40582 	-1.93022 	2.62119e-20 6.36946 	-2.07919 	5.3735e-20 6.31931 	-2.23397 	8.12375e-20 6.3111 	-2.28441 	2.34094e-20 6.29893 	-2.33173 	5.86504e-21 6.28257 	-2.37574 	3.12854e-20 6.26565 	-2.41949 	5.73256e-20 6.25132 	-2.45517 	7.91973e-20 6.22492 	-2.55105 	1.78979e-19 6.19658 	-2.64636 	2.82922e-19 6.1663 	-2.74109 	3.91002e-19 6.12014 	-2.82225 	2.7436e-19 6.06358 	-2.90261 	6.24943e-20 5.98362 	-3.02228 	4.92783e-20 5.89845 	-3.13897 	3.61909e-20 5.80158 	-3.23682 	8.57582e-21 5.70031 	-3.33273 	-1.80396e-20 5.62546 	-3.39923 	-3.61628e-20 5.6163 	-3.40854 	-3.59547e-20 5.60711 	-3.41785 	-3.57316e-20 5.59785 	-3.4265 	-3.68833e-20 5.58845 	-3.43346 	-4.16942e-20 5.57892 	-3.4405 	-4.65508e-20 5.45902 	-3.53671 	-2.82823e-20 5.3338 	-3.63096 	-9.44087e-21 5.20776 	-3.7079 	1.2971e-22 5.08154 	-3.76681 	-1.76971e-22 4.93261 	-3.83207 	7.91682e-23 4.93234 	-3.83222 	4.5304e-23 4.93206 	-3.83237 	1.14392e-23 4.93182 	-3.83248 	2.00824e-23 4.93158 	-3.83256 	5.04089e-23 4.93134 	-3.83264 	8.07458e-23 4.80565 	-3.88198 	1.13412e-21 4.67586 	-3.92971 	2.49183e-21 4.54895 	-3.96621 	4.21959e-21 4.43134 	-3.9833 	6.34447e-21 4.33602 	-3.99567 	8.21501e-21 4.30567 	-4.00333 	1.33645e-20 4.2751 	-4.01092 	1.8552e-20 4.24978 	-4.01264 	9.22653e-21 4.22458 	-4.014 	-8.28659e-22 4.19827 	-4.01535 	-1.12543e-20 4.12448 	-4.02266 	-6.36128e-20 4.04951 	-4.02944 	-1.15603e-19 3.9735 	-4.03555 	-1.65784e-19 3.90935 	-4.03002 	-1.01557e-19 3.85055 	-4.02464 	-4.30491e-20 3.77295 	-4.02678 	4.18413e-21 3.69546 	-4.02604 	4.20099e-20 3.62355 	-4.01392 	3.42106e-20 3.55057 	-4.00132 	2.66821e-20 3.4685 	-3.98683 	1.86534e-20 3.46518 	-3.98641 	1.92754e-20 3.46186 	-3.98599 	1.98976e-20 3.45854 	-3.98558 	2.05199e-20 3.45541 	-3.98486 	2.10422e-20 3.45236 	-3.98403 	2.15233e-20 3.38422 	-3.97199 	1.4128e-20 3.31403 	-3.95784 	7.41996e-21 3.24263 	-3.94298 	7.06547e-22 3.17084 	-3.91592 	6.16605e-21 3.1032 	-3.88915 	1.23493e-20 3.0611 	-3.87914 	3.47287e-20 3.01869 	-3.86774 	5.06334e-20 2.97708 	-3.84877 	2.3362e-20 2.93506 	-3.82957 	-3.85239e-21 2.88984 	-3.80887 	-3.27896e-20 2.87172 	-3.80232 	-3.88895e-20 2.85353 	-3.79571 	-4.49916e-20 2.83525 	-3.78906 	-5.10959e-20 2.81707 	-3.78 	-5.72856e-20 2.79915 	-3.77049 	-6.3394e-20 2.74576 	-3.74943 	-1.07119e-19 2.69153 	-3.72787 	-1.50963e-19 2.63673 	-3.69722 	-1.46196e-19 2.58231 	-3.65984 	-8.81908e-20 2.52978 	-3.62373 	-3.27132e-20 2.51285 	-3.6148 	2.07374e-21 2.49587 	-3.60567 	3.52574e-20 2.47999 	-3.59327 	3.00008e-20 2.46404 	-3.58082 	2.47794e-20 2.44761 	-3.568 	1.94577e-20 2.41708 	-3.54892 	5.656e-20 2.3863 	-3.52965 	9.35829e-20 2.35525 	-3.51018 	1.30524e-19 2.32527 	-3.48567 	1.03444e-19 2.29587 	-3.46123 	7.23034e-20 2.25894 	-3.43554 	4.2448e-20 2.22155 	-3.40952 	1.25603e-20 2.18697 	-3.37665 	-2.90899e-21 2.15216 	-3.34344 	-1.81169e-20 2.11502 	-3.3081 	-3.42245e-20 2.11132 	-3.30525 	-3.18065e-20 2.10762 	-3.30239 	-2.93914e-20 2.10391 	-3.29953 	-2.6979e-20 2.10041 	-3.29611 	-3.40137e-20 2.09694 	-3.29268 	-4.13446e-20 2.06022 	-3.26039 	-1.64525e-19 2.0245 	-3.22605 	-2.56514e-19 1.98944 	-3.18995 	-2.99648e-19 1.95721 	-3.14906 	-1.93315e-19 1.92545 	-3.10883 	-8.89827e-20 1.91684 	-3.09914 	-7.7887e-20 1.90821 	-3.08943 	-6.67869e-20 1.90087 	-3.07859 	-5.65112e-20 1.89383 	-3.06747 	-4.64263e-20 1.88674 	-3.05628 	-3.62656e-20 1.86481 	-3.0309 	-1.17319e-20 1.84278 	-3.00542 	1.28232e-20 1.82119 	-2.97926 	2.99943e-20 1.80216 	-2.95029 	1.2163e-20 1.78328 	-2.92155 	-5.505e-21 1.76988 	-2.90259 	-2.11258e-20 1.75646 	-2.8836 	-3.67348e-20 1.74522 	-2.8633 	-1.81011e-20 1.73492 	-2.84249 	1.47354e-20 1.72462 	-2.82165 	4.76783e-20 1.71229 	-2.80446 	1.21817e-20 1.69994 	-2.78725 	-2.32647e-20 1.68823 	-2.76956 	-3.48787e-20 1.67816 	-2.75071 	1.2989e-20 1.66812 	-2.73192 	6.07255e-20 1.65479 	-2.70772 	1.97496e-19 1.64149 	-2.68354 	3.34205e-19 1.63057 	-2.65859 	2.96401e-19 1.62141 	-2.63315 	1.33634e-19 1.6125 	-2.60811 	-2.78221e-20 1.60469 	-2.59475 	-5.73711e-20 1.59689 	-2.5814 	-8.6928e-20 1.58991 	-2.5677 	-8.97711e-20 1.58403 	-2.55354 	-5.62783e-20 1.57817 	-2.53938 	-2.27587e-20 1.56818 	-2.51487 	-2.46209e-20 1.5583 	-2.49044 	-2.65229e-20 1.55036 	-2.4659 	-1.933e-20 1.54492 	-2.4412 	-4.99802e-22 1.53986 	-2.41739 	1.77493e-20 1.53321 	-2.40291 	2.97225e-20 1.52659 	-2.38844 	4.16911e-20 1.52129 	-2.37375 	4.57215e-20 1.51694 	-2.35893 	4.4098e-20 1.51261 	-2.34406 	4.24445e-20 1.50738 	-2.32432 	2.55674e-20 1.50227 	-2.3047 	8.66471e-21 1.49824 	-2.28529 	-3.13056e-21 1.49689 	-2.26624 	-1.11892e-21 1.49579 	-2.24808 	8.1358e-22 1.48882 	-2.22757 	7.62585e-20 1.48196 	-2.20714 	1.51931e-19 1.47769 	-2.18689 	1.25788e-19 1.47436 	-2.16678 	6.7807e-20 1.47114 	-2.1465 	8.99839e-21 1.46993 	-2.13596 	-2.33579e-20 1.46879 	-2.12547 	-5.56707e-20 1.46791 	-2.11515 	-8.1996e-20 1.46943 	-2.10626 	-3.64819e-20 1.471 	-2.0977 	7.88484e-21 1.46387 	-2.06748 	4.60805e-21 1.45704 	-2.03755 	1.31348e-21 1.45627 	-2.01098 	-2.34551e-20 1.45684 	-1.98528 	-5.17307e-20 1.45945 	-1.96231 	-7.48569e-20 1.45898 	-1.96035 	-6.85078e-20 1.4585 	-1.95838 	-6.22137e-20 1.45845 	-1.95663 	-6.6966e-20 1.45841 	-1.95487 	-7.17159e-20 1.45836 	-1.95311 	-7.64762e-20 1.45648 	-1.92819 	-2.0948e-19 1.45498 	-1.90357 	-3.41749e-19 1.45421 	-1.87953 	-4.46515e-19 1.45846 	-1.85931 	-1.91163e-19 1.46282 	-1.84095 	4.70795e-20 1.46067 	-1.82604 	1.11185e-19 1.45864 	-1.81123 	1.7507e-19 1.45956 	-1.79855 	1.42356e-19 1.46061 	-1.78596 	1.09743e-19 1.46181 	-1.77313 	7.631e-20 1.46274 	-1.76357 	6.7388e-20 1.46374 	-1.75408 	5.84879e-20 1.46483 	-1.74465 	4.96101e-20 1.46744 	-1.73647 	5.16813e-20 1.47011 	-1.72871 	5.41964e-20 1.46959 	-1.70545 	2.95069e-20 1.46943 	-1.68247 	4.75568e-21 1.47234 	-1.66191 	2.02252e-20 1.47694 	-1.64245 	4.53105e-20 1.48289 	-1.62534 	6.85409e-20 1.48287 	-1.62127 	6.7421e-20 1.48295 	-1.61726 	6.75854e-20 1.48354 	-1.61364 	7.51531e-20 1.48414 	-1.61003 	8.27189e-20 1.48477 	-1.60638 	9.0373e-20 1.48747 	-1.59064 	1.39733e-19 1.49045 	-1.57511 	1.88971e-19 1.49369 	-1.55978 	2.38084e-19 1.49886 	-1.54628 	1.68531e-19 1.50427 	-1.53411 	8.22751e-20 1.50593 	-1.51461 	1.55658e-19 1.50843 	-1.49584 	2.03772e-19 1.51305 	-1.47902 	1.61909e-19 1.51802 	-1.46245 	1.20578e-19 1.52372 	-1.44496 	7.67811e-20 1.52374 	-1.44489 	7.6556e-20 1.52377 	-1.44483 	7.63308e-20 1.52379 	-1.44477 	7.61057e-20 1.52381 	-1.44472 	7.6405e-20 1.52384 	-1.44466 	7.6934e-20 1.52825 	-1.42764 	1.26482e-19 1.53305 	-1.41089 	1.74524e-19 1.53823 	-1.3944 	2.22174e-19 1.54499 	-1.37969 	1.84231e-19 1.55209 	-1.36677 	1.17104e-19 1.55543 	-1.34916 	2.0313e-19 1.55963 	-1.33245 	2.39636e-19 1.56528 	-1.3173 	1.74894e-19 1.57125 	-1.3024 	1.10366e-19 1.57761 	-1.28886 	3.78239e-20 1.57784 	-1.28786 	3.75696e-20 1.57811 	-1.2869 	3.67308e-20 1.57844 	-1.28601 	3.51548e-20 1.57876 	-1.28512 	3.35785e-20 1.57909 	-1.28422 	3.19929e-20 1.58431 	-1.27029 	-1.34914e-20 1.58982 	-1.25654 	-5.88968e-20 1.59563 	-1.243 	-1.0422e-19 1.60233 	-1.23066 	-8.93415e-20 1.60939 	-1.21994 	-3.00721e-20 1.61383 	-1.20442 	-7.54565e-20 1.61859 	-1.18911 	-1.21254e-19 1.62467 	-1.17573 	-1.0386e-19 1.63197 	-1.16308 	-6.09347e-20 1.63999 	-1.1517 	3.29609e-22 1.64228 	-1.14486 	2.88293e-20 1.6449 	-1.13852 	2.83179e-20 1.64776 	-1.13256 	7.13086e-21 1.65069 	-1.12663 	-1.40053e-20 1.65383 	-1.12045 	-3.61448e-20 1.65747 	-1.11363 	-6.80415e-20 1.66119 	-1.10686 	-9.98268e-20 1.665 	-1.10015 	-1.315e-19 1.66904 	-1.09387 	-1.31062e-19 1.67328 	-1.08839 	-7.98806e-20 1.67842 	-1.07465 	-1.11917e-19 1.68445 	-1.0614 	-1.36096e-19 1.69178 	-1.04899 	-1.45542e-19 1.69997 	-1.03838 	-1.35213e-19 1.70805 	-1.02841 	-1.25225e-19 1.71383 	-1.0149 	-2.75525e-19 1.72009 	-1.00221 	-3.50405e-19 1.72697 	-0.990768 	-2.96333e-19 1.73412 	-0.979488 	-2.42769e-19 1.74242 	-0.969413 	-1.16065e-19 1.74452 	-0.965068 	-8.24813e-20 1.74677 	-0.961175 	-8.46998e-20 1.74909 	-0.957416 	-9.65865e-20 1.75143 	-0.953674 	-1.08425e-19 1.7539 	-0.949789 	-1.20724e-19 1.75876 	-0.942438 	-1.24331e-19 1.76374 	-0.935153 	-1.2791e-19 1.76884 	-0.927936 	-1.31462e-19 1.77408 	-0.921007 	-1.29654e-19 1.77941 	-0.915245 	-1.0528e-19 1.78546 	-0.903314 	-1.3289e-19 1.79251 	-0.891958 	-1.44768e-19 1.80045 	-0.881105 	-1.43541e-19 1.80877 	-0.872037 	-1.02972e-19 1.81705 	-0.863506 	-6.09471e-20 1.82366 	-0.851814 	-1.64905e-19 1.83053 	-0.840288 	-2.6704e-19 1.83769 	-0.830595 	-2.25725e-19 1.84591 	-0.82149 	-1.27943e-19 1.85459 	-0.813045 	4.38614e-23 1.86121 	-0.802485 	1.42176e-22 1.86798 	-0.793558 	1.07553e-22 1.87495 	-0.784774 	6.89022e-23 1.88212 	-0.776091 	2.98226e-23 1.8905 	-0.766318 	-1.51638e-23 1.89087 	-0.765905 	7.04762e-22 1.89125 	-0.765491 	1.42422e-21 1.89163 	-0.765078 	2.14321e-21 1.89201 	-0.764665 	2.86173e-21 1.89237 	-0.764334 	4.1936e-22 1.89985 	-0.75488 	-2.52566e-20 1.90764 	-0.745596 	-4.71261e-20 1.91566 	-0.736424 	-6.88173e-20 1.92389 	-0.727373 	-8.98872e-20 1.9318 	-0.720386 	-3.12035e-20 1.93868 	-0.710429 	-2.1133e-20 1.94625 	-0.700913 	-1.39362e-20 1.95463 	-0.69193 	-1.04229e-20 1.9628 	-0.684657 	-1.59892e-20 1.97094 	-0.677789 	-2.24541e-20 1.97825 	-0.668082 	5.39365e-20 1.98579 	-0.658477 	1.3044e-19 1.99322 	-0.650388 	1.32357e-19 2.00153 	-0.643442 	6.57217e-20 2.00987 	-0.636699 	1.63282e-22 2.01758 	-0.627247 	9.71245e-23 2.02511 	-0.618869 	-1.11748e-20 2.03253 	-0.611328 	-3.10204e-20 2.04013 	-0.603866 	-5.08423e-20 2.0486 	-0.597227 	-6.38707e-20 2.05551 	-0.58952 	-1.06457e-19 2.06204 	-0.583007 	-1.10013e-19 2.06871 	-0.576553 	-1.1363e-19 2.07551 	-0.570155 	-1.17305e-19 2.08348 	-0.562872 	-1.21594e-19 2.08424 	-0.562208 	-1.22775e-19 2.085 	-0.561545 	-1.23956e-19 2.08576 	-0.560882 	-1.25136e-19 2.08653 	-0.560221 	-1.26316e-19 2.08723 	-0.559683 	-1.22316e-19 2.09469 	-0.552383 	-9.43352e-20 2.10238 	-0.545225 	-6.5092e-20 2.11025 	-0.538136 	-3.58866e-20 2.11829 	-0.531116 	-6.71936e-21 2.12556 	-0.525625 	1.79225e-22 2.13271 	-0.517859 	6.74854e-20 2.14054 	-0.510878 	8.63796e-20 2.14854 	-0.503985 	1.03518e-19 2.1562 	-0.497908 	8.43372e-20 2.16322 	-0.492989 	1.49103e-20 2.1706 	-0.485466 	-5.50289e-20 2.17821 	-0.478092 	-1.18715e-19 2.18628 	-0.471451 	-1.34999e-19 2.1932 	-0.466586 	-6.7269e-20 2.20018 	-0.461805 	-7.25172e-23 2.20776 	-0.454524 	-3.96148e-23 2.21552 	-0.447303 	-6.88459e-24 2.22264 	-0.441438 	0 2.22948 	-0.43672 	0 2.23639 	-0.432077 	0 2.24414 	-0.425038 	0 2.25181 	-0.418319 	0 2.25831 	-0.413084 	0 2.26501 	-0.408308 	-1.01531e-20 2.27181 	-0.403803 	-2.51746e-20 2.2797 	-0.397004 	-6.23905e-21 2.28661 	-0.391366 	-6.35032e-21 2.29311 	-0.386315 	-1.58162e-20 2.29973 	-0.381329 	-2.67463e-20 2.3064 	-0.376962 	-6.64873e-20 2.31411 	-0.370648 	-2.84721e-20 2.32046 	-0.365746 	-3.02616e-20 2.32693 	-0.360878 	-3.20229e-20 2.33351 	-0.356043 	-3.37562e-20 2.34011 	-0.351526 	-4.6471e-20 2.34635 	-0.346661 	-3.69107e-20 2.35197 	-0.342444 	-3.8362e-20 2.35767 	-0.338251 	-3.97918e-20 2.36347 	-0.334083 	-4.12002e-20 2.37032 	-0.329261 	-4.28144e-20 2.37084 	-0.328906 	-4.26966e-20 2.37136 	-0.328552 	-4.2579e-20 2.37188 	-0.328199 	-4.24615e-20 2.3724 	-0.327845 	-4.23442e-20 2.37286 	-0.327545 	-4.2521e-20 2.37902 	-0.322955 	-4.92044e-20 2.38528 	-0.318419 	-5.37537e-20 2.39166 	-0.31391 	-5.82261e-20 2.39814 	-0.30943 	-6.2622e-20 2.40378 	-0.305702 	-3.89669e-20 2.41011 	-0.300986 	-7.51585e-20 2.41627 	-0.296625 	-8.72917e-20 2.42254 	-0.29229 	-9.93662e-20 2.42891 	-0.28798 	-1.11382e-19 2.43355 	-0.284993 	-7.13066e-20 2.44013 	-0.280209 	-1.18581e-19 2.44617 	-0.276021 	-1.21108e-19 2.45231 	-0.271857 	-1.23588e-19 2.4582 	-0.267952 	-1.19e-19 2.46217 	-0.265388 	-7.53457e-20 2.46878 	-0.260771 	-1.17874e-19 2.47495 	-0.256565 	-1.2801e-19 2.48095 	-0.25257 	-1.22406e-19 2.48589 	-0.249308 	-9.47997e-20 2.48963 	-0.246849 	-4.31989e-20 2.49621 	-0.242435 	4.31573e-20 2.5026 	-0.238215 	1.03853e-19 2.50844 	-0.234385 	1.09349e-19 2.51242 	-0.231696 	5.03681e-20 2.51591 	-0.22934 	-2.66966e-20 2.52245 	-0.225126 	-1.75932e-20 2.5291 	-0.22093 	-8.49978e-21 2.53461 	-0.217346 	8.66905e-21 2.53779 	-0.215078 	2.59572e-20 2.54102 	-0.212823 	4.32201e-20 2.5475 	-0.208804 	-4.33231e-20 2.55408 	-0.204802 	-1.29879e-19 2.55907 	-0.20158 	-1.41243e-19 2.56199 	-0.199413 	-7.10824e-20 2.56496 	-0.197257 	-1.02026e-21 2.57137 	-0.19343 	-1.06632e-22 2.57787 	-0.189617 	7.86203e-22 2.58238 	-0.186731 	-1.56698e-20 2.58504 	-0.184662 	-4.9416e-20 2.58774 	-0.182603 	-8.31372e-20 2.59406 	-0.178962 	-4.76819e-20 2.60047 	-0.175335 	-1.22423e-20 2.60454 	-0.172759 	-8.54653e-21 2.60693 	-0.170786 	-2.59299e-20 2.60937 	-0.168821 	-4.32976e-20 2.61558 	-0.165363 	-2.59872e-20 2.62189 	-0.161919 	-8.71081e-21 2.6255 	-0.159641 	-9.45528e-21 2.62769 	-0.157744 	-2.60533e-20 2.62986 	-0.155873 	-4.33785e-20 2.63597 	-0.152592 	-1.64884e-19 2.64161 	-0.149537 	-2.61783e-19 2.64506 	-0.147378 	-2.57091e-19 2.64732 	-0.145499 	-1.64746e-19 2.64923 	-0.143718 	-4.3359e-20 2.65522 	-0.140611 	-2.59812e-20 2.66022 	-0.137903 	-8.62101e-21 2.6635 	-0.135859 	8.7088e-21 2.66586 	-0.134012 	2.13083e-20 2.66749 	-0.132319 	3.02503e-20 2.67336 	-0.129381 	9.13181e-20 2.67775 	-0.126983 	1.18687e-19 2.68087 	-0.125051 	1.17013e-19 2.68331 	-0.123248 	9.21099e-20 2.68469 	-0.121641 	3.16743e-20 2.69043 	-0.118866 	2.32324e-20 2.69423 	-0.116743 	1.48068e-20 2.69718 	-0.114919 	6.38616e-21 2.69971 	-0.11317 	0 2.70083 	-0.111647 	0 2.70644 	-0.10903 	0 2.70968 	-0.107152 	1.47206e-20 2.71246 	-0.105432 	3.25509e-20 2.71509 	-0.103744 	5.0366e-20 2.71596 	-0.102303 	6.81078e-20 2.72143 	-0.0998395 	1.90104e-19 2.72414 	-0.0981768 	1.9361e-19 2.72676 	-0.0965583 	1.91083e-19 2.72942 	-0.094943 	1.88606e-19 2.7301 	-0.0935754 	7.02146e-20 2.73523 	-0.0913123 	5.32006e-20 2.73765 	-0.0897885 	3.62398e-20 2.7401 	-0.0882674 	1.92708e-20 2.7426 	-0.0867492 	2.29368e-21 2.74328 	-0.0854329 	1.46977e-20 2.74797 	-0.0833867 	-4.34435e-24 2.75023 	-0.0819571 	-2.98901e-23 2.75252 	-0.0805299 	-5.54257e-23 2.75486 	-0.0791052 	-8.09512e-23 2.75554 	-0.0778446 	6.38877e-21 2.75981 	-0.0759934 	-5.08037e-20 2.76191 	-0.0746545 	-4.95045e-20 2.76406 	-0.0733176 	-4.82328e-20 2.76624 	-0.0719829 	-4.69885e-20 2.76692 	-0.070781 	-5.64336e-21 2.77079 	-0.0691053 	8.55973e-23 2.77275 	-0.0678534 	6.04913e-23 2.77474 	-0.0666034 	3.53755e-23 2.77677 	-0.0653551 	1.025e-23 2.77745 	-0.0642139 	0 2.78096 	-0.0626962 	1.11919e-20 2.78277 	-0.0615278 	3.75151e-20 2.78462 	-0.060361 	6.38296e-20 2.7865 	-0.0591956 	9.01354e-20 2.78717 	-0.0581164 	1.07499e-19 2.79034 	-0.056741 	1.73092e-19 2.79201 	-0.0556525 	1.72014e-19 2.79372 	-0.0545654 	1.70963e-19 2.79546 	-0.0534795 	1.69941e-19 2.79612 	-0.0524627 	1.02489e-19 2.79897 	-0.0512155 	8.75816e-20 2.80052 	-0.0502034 	5.31482e-20 2.80209 	-0.0491924 	1.87095e-20 2.80369 	-0.0481825 	-1.57347e-20 2.80433 	-0.0472279 	-4.66893e-20 2.8069 	-0.0460964 	-9.02021e-20 2.80832 	-0.0451573 	-8.89943e-20 2.80976 	-0.044219 	-8.78203e-20 2.81123 	-0.0432817 	-8.66801e-20 2.81184 	-0.0423886 	-3.70511e-20 2.81415 	-0.0413616 	-4.95309e-20 2.81545 	-0.0404919 	-3.17104e-20 2.81677 	-0.0396229 	-1.39077e-20 2.81812 	-0.0387547 	3.87705e-21 2.81869 	-0.0379219 	4.31037e-20 2.82077 	-0.0369896 	4.98642e-20 2.82196 	-0.0361859 	6.7335e-20 2.82316 	-0.0353828 	8.47976e-20 2.82439 	-0.0345804 	1.02252e-19 2.82492 	-0.0338064 	1.22067e-19 2.8268 	-0.0329598 	1.46222e-19 2.82787 	-0.0322188 	1.37e-19 2.82896 	-0.0314783 	1.27799e-19 2.83008 	-0.0307384 	1.18619e-19 2.83057 	-0.0300213 	8.1689e-20 2.83225 	-0.0292526 	5.80649e-20 2.83322 	-0.028571 	3.23169e-20 2.83422 	-0.0278898 	6.56695e-21 2.83523 	-0.0272091 	-1.91848e-20 2.83566 	-0.0265469 	-4.10466e-20 2.83718 	-0.025849 	-5.6159e-20 2.83806 	-0.0252236 	-3.83853e-20 2.83895 	-0.0245985 	-2.06377e-20 2.83986 	-0.0239738 	-2.9162e-21 2.84024 	-0.0233643 	4.84818e-20 2.84162 	-0.0227311 	1.02312e-19 2.8424 	-0.0221586 	1.09993e-19 2.8432 	-0.0215865 	1.17717e-19 2.84402 	-0.0210147 	1.25485e-19 2.84434 	-0.0204555 	8.86209e-20 2.84559 	-0.0198812 	7.17991e-20 2.84629 	-0.0193588 	6.32554e-20 2.84701 	-0.0188365 	5.47076e-20 2.84774 	-0.0183145 	4.61556e-20 2.84799 	-0.0178031 	3.76063e-20 2.84913 	-0.0172829 	1.441e-20 2.84975 	-0.0168074 	1.47573e-20 2.85039 	-0.0163321 	1.5082e-20 2.85104 	-0.0158569 	1.53842e-20 2.85122 	-0.0153908 	4.14743e-20 2.85228 	-0.0149201 	3.98