# vtk DataFile Version 2.0
track0
ASCII
DATASET POLYDATA
POINTS 12278 float
-0.0205 0.001 1e-05
-0.02052 0.000999216 1e-05
-0.02054 0.000998592 1e-05
-0.02056 0.000998126 1e-05
-0.02058 0.000997818 1e-05
-0.0206 0.000997665 1e-05
-0.0205 0.00367778 1e-05
-0.02052 0.00367703 1e-05
-0.02054 0.00367643 1e-05
-0.02056 0.00367599 1e-05
-0.02058 0.00367569 1e-05
-0.0206 0.00367554 1e-05
-0.0205 0.00635556 1e-05
-0.02052 0.00635527 1e-05
-0.02054 0.00635505 1e-05
-0.02056 0.00635488 1e-05
-0.02058 0.00635476 1e-05
-0.0206 0.00635471 1e-05
-0.0205 0.00903333 1e-05
-0.02052 0.00903311 1e-05
-0.02054 0.00903293 1e-05
-0.02056 0.0090328 1e-05
-0.02058 0.00903271 1e-05
-0.0206 0.00903266 1e-05
-0.0205 0.0117111 1e-05
-0.02052 0.0117111 1e-05
-0.02054 0.011711 1e-05
-0.02056 0.011711 1e-05
-0.02058 0.011711 1e-05
-0.0206 0.011711 1e-05
-0.0205 0.0143889 1e-05
-0.02052 0.014389 1e-05
-0.02054 0.014389 1e-05
-0.02056 0.0143891 1e-05
-0.02058 0.0143891 1e-05
-0.0206 0.0143891 1e-05
-0.0205 0.0170667 1e-05
-0.02052 0.017067 1e-05
-0.02054 0.0170672 1e-05
-0.02056 0.0170674 1e-05
-0.02058 0.0170675 1e-05
-0.0206 0.0170676 1e-05
-0.0205 0.0197444 1e-05
-0.02052 0.019745 1e-05
-0.02054 0.0197454 1e-05
-0.02056 0.0197457 1e-05
-0.02058 0.0197459 1e-05
-0.0206 0.019746 1e-05
-0.0205 0.0224222 1e-05
-0.02052 0.022423 1e-05
-0.02054 0.0224236 1e-05
-0.02056 0.0224241 1e-05
-0.02058 0.0224244 1e-05
-0.0206 0.0224245 1e-05
-0.0205 0.0251 1e-05
-0.02052 0.0251003 1e-05
-0.02054 0.0251005 1e-05
-0.02056 0.0251007 1e-05
-0.02058 0.0251008 1e-05
-0.0206 0.0251008 1e-05
-0.0205 0.001 1e-05
-0.0203632 0.00100536 1e-05
-0.0202266 0.00101331 1e-05
-0.0200901 0.00102296 1e-05
-0.0200427 0.00102682 1e-05
-0.0198376 0.00104418 1e-05
-0.0196338 0.00107322 1e-05
-0.0194327 0.00111734 1e-05
-0.0192368 0.00118024 1e-05
-0.0190172 0.00124951 1e-05
-0.0189002 0.00128348 1e-05
-0.0187827 0.00131598 1e-05
-0.0186649 0.001347 1e-05
-0.0185469 0.001377 1e-05
-0.0183807 0.00141936 1e-05
-0.0182041 0.00146458 1e-05
-0.0180267 0.00150692 1e-05
-0.0178487 0.0015464 1e-05
-0.0176703 0.00158389 1e-05
-0.0174976 0.00161991 1e-05
-0.0172846 0.00166394 1e-05
-0.0170715 0.00170741 1e-05
-0.0168583 0.00175029 1e-05
-0.0166449 0.00179219 1e-05
-0.0163945 0.00184007 1e-05
-0.0163234 0.00185324 1e-05
-0.0162522 0.00186629 1e-05
-0.016181 0.00187921 1e-05
-0.0161097 0.00189201 1e-05
-0.0160387 0.0019046 1e-05
-0.0157586 0.0019535 1e-05
-0.0154779 0.00199931 1e-05
-0.0151968 0.00204225 1e-05
-0.0149154 0.00208283 1e-05
-0.0146381 0.00212134 1e-05
-0.0143838 0.00215527 1e-05
-0.0141293 0.00218766 1e-05
-0.0138747 0.00221855 1e-05
-0.0136198 0.00224797 1e-05
-0.0132934 0.00228369 1e-05
-0.0132791 0.00228514 1e-05
-0.0132648 0.0022866 1e-05
-0.0132504 0.00228805 1e-05
-0.0132361 0.0022895 1e-05
-0.0132213 0.00229098 1e-05
-0.0129776 0.00231543 1e-05
-0.0127337 0.00233865 1e-05
-0.0124897 0.00236061 1e-05
-0.0122456 0.00238129 1e-05
-0.0120025 0.00240058 1e-05
-0.0117547 0.00241909 1e-05
-0.0115067 0.00243627 1e-05
-0.0112587 0.00245231 1e-05
-0.0110106 0.00246734 1e-05
-0.0107632 0.00248135 1e-05
-0.0105252 0.00249391 1e-05
-0.0102872 0.00250547 1e-05
-0.0100491 0.00251602 1e-05
-0.00981105 0.00252575 1e-05
-0.00957337 0.00253471 1e-05
-0.00934491 0.00254261 1e-05
-0.00911643 0.00254974 1e-05
-0.00888792 0.00255611 1e-05
-0.0086594 0.00256172 1e-05
-0.00843108 0.00256669 1e-05
-0.00821175 0.00257085 1e-05
-0.00799241 0.00257439 1e-05
-0.00777306 0.00257731 1e-05
-0.0075537 0.00257953 1e-05
-0.00733443 0.00258115 1e-05
-0.00712387 0.00258213 1e-05
-0.0069133 0.00258257 1e-05
-0.00670273 0.00258244 1e-05
-0.00649216 0.00258163 1e-05
-0.0062816 0.00258019 1e-05
-0.00607944 0.00257821 1e-05
-0.0058773 0.00257567 1e-05
-0.00567516 0.00257258 1e-05
-0.00547303 0.00256877 1e-05
-0.00527083 0.00256421 1e-05
-0.00507675 0.00255915 1e-05
-0.00488269 0.00255346 1e-05
-0.00468865 0.00254714 1e-05
-0.00449464 0.00254 1e-05
-0.00430044 0.00253194 1e-05
-0.00411412 0.00252333 1e-05
-0.00392784 0.00251392 1e-05
-0.00374159 0.00250373 1e-05
-0.0035554 0.00249259 1e-05
-0.00336883 0.00248021 1e-05
-0.00318995 0.00246716 1e-05
-0.00301115 0.00245305 1e-05
-0.00283245 0.0024378 1e-05
-0.00265386 0.00242127 1e-05
-0.00247443 0.0024032 1e-05
-0.0023027 0.00238432 1e-05
-0.00213114 0.00236391 1e-05
-0.00195982 0.00234161 1e-05
-0.00178875 0.00231746 1e-05
-0.00161577 0.00229114 1e-05
-0.00161558 0.0022911 1e-05
-0.00161538 0.00229107 1e-05
-0.00161519 0.00229104 1e-05
-0.001615 0.00229101 1e-05
-0.0016148 0.00229098 1e-05
-0.00145013 0.00226408 1e-05
-0.00128585 0.00223484 1e-05
-0.001122 0.0022033 1e-05
-0.000958594 0.00216953 1e-05
-0.000791418 0.00213246 1e-05
-0.000633135 0.00209435 1e-05
-0.000475556 0.00205342 1e-05
-0.000318719 0.00200974 1e-05
-0.000162834 0.00196278 1e-05
0 0.00190963 1e-05
3.74061e-05 0.00189641 1e-05
7.47119e-05 0.00188291 1e-05
0.000111919 0.00186914 1e-05
0.000149028 0.0018551 1e-05
0.000179379 0.00184338 1e-05
0.000249181 0.00181597 1e-05
0.000318573 0.00178753 1e-05
0.000387539 0.00175807 1e-05
0.000456067 0.00172761 1e-05
0.000528387 0.00169427 1e-05
0.000634886 0.00164329 1e-05
0.000740278 0.00159007 1e-05
0.00084451 0.00153461 1e-05
0.000947621 0.00147709 1e-05
0.00102015 0.00143469 1e-05
0.0010283 0.00142977 1e-05
0.00103643 0.00142483 1e-05
0.00104456 0.00141987 1e-05
0.00105268 0.00141491 1e-05
0.00106088 0.00140987 1e-05
0.00116821 0.00134369 1e-05
0.00127404 0.00127514 1e-05
0.00137827 0.00120419 1e-05
0.00148099 0.00113106 1e-05
0.00159696 0.00104511 1e-05
0.00159707 0.00104503 1e-05
0.00159719 0.00104494 1e-05
0.0015973 0.00104485 1e-05
0.00159741 0.00104477 1e-05
0.00159752 0.00104468 1e-05
0.00169225 0.000971069 1e-05
0.00178557 0.00089569 1e-05
0.00187742 0.000818509 1e-05
0.00196784 0.000739672 1e-05
0.00203827 0.000676369 1e-05
0.00205828 0.000657929 1e-05
0.00207821 0.0006394 1e-05
0.00209806 0.000620782 1e-05
0.00211784 0.000602102 1e-05
0.00213833 0.000582642 1e-05
0.00219152 0.000531773 1e-05
0.00224422 0.000480385 1e-05
0.00229639 0.000428472 1e-05
0.00234804 0.000376027 1e-05
0.00239438 0.000328256 1e-05
0.00245217 0.000267852 1e-05
0.00250933 0.00020685 1e-05
0.00256586 0.000145266 1e-05
0.00262188 8.32163e-05 1e-05
0.00268334 1.39671e-05 1e-05
0.00268577 1.11737e-05 1e-05
0.0026882 8.3792e-06 1e-05
0.00269063 5.58366e-06 1e-05
0.00269305 2.78705e-06 1e-05
0.00269547 0 1e-05
0.00275937 -7.37369e-05 1e-05
0.00282265 -0.000148006 1e-05
0.00288529 -0.000222814 1e-05
0.00294726 -0.000298174 1e-05
0.00300433 -0.000368655 1e-05
0.00304998 -0.000425868 1e-05
0.00309533 -0.000483326 1e-05
0.00314036 -0.000541025 1e-05
0.00318514 -0.000598919 1e-05
0.00323259 -0.000660818 1e-05
0.00325069 -0.000684674 1e-05
0.00326874 -0.000708569 1e-05
0.00328673 -0.000732505 1e-05
0.00330467 -0.000756481 1e-05
0.00332227 -0.000780091 1e-05
0.00339041 -0.000871879 1e-05
0.00345795 -0.000964109 1e-05
0.00352486 -0.00105679 1e-05
0.00359124 -0.00114987 1e-05
0.0036541 -0.00123896 1e-05
0.0036805 -0.00127678 1e-05
0.00370682 -0.00131465 1e-05
0.00373308 -0.00135258 1e-05
0.00375928 -0.00139054 1e-05
0.00378611 -0.00142954 1e-05
0.00383014 -0.00149372 1e-05
0.00387395 -0.00155806 1e-05
0.00391755 -0.00162254 1e-05
0.00396091 -0.00168718 1e-05
0.00400311 -0.00175044 1e-05
0.00407127 -0.00185321 1e-05
0.00413902 -0.00195626 1e-05
0.00420634 -0.00205959 1e-05
0.00427338 -0.0021631 1e-05
0.00434393 -0.00227272 1e-05
0.00435001 -0.00228224 1e-05
0.00435609 -0.00229176 1e-05
0.00436217 -0.00230128 1e-05
0.00436824 -0.0023108 1e-05
0.0043743 -0.0023203 1e-05
0.00445513 -0.00244725 1e-05
0.00453552 -0.00257449 1e-05
0.0046155 -0.00270197 1e-05
0.00469513 -0.00282968 1e-05
0.00477299 -0.00295498 1e-05
0.00479961 -0.00299797 1e-05
0.00482621 -0.00304097 1e-05
0.00485277 -0.003084 1e-05
0.00487933 -0.00312702 1e-05
0.00490609 -0.00317037 1e-05
0.00496673 -0.00326862 1e-05
0.00502722 -0.00336697 1e-05
0.00508756 -0.0034654 1e-05
0.00514777 -0.00356392 1e-05
0.00520742 -0.00366161 1e-05
0.00526046 -0.00374853 1e-05
0.00531346 -0.00383547 1e-05
0.00536642 -0.00392244 1e-05
0.0054194 -0.0040094 1e-05
0.00547262 -0.00409662 1e-05
0.00551557 -0.00416692 1e-05
0.00555849 -0.00423724 1e-05
0.00560138 -0.00430758 1e-05
0.00564425 -0.00437793 1e-05
0.00568705 -0.00444811 1e-05
0.00575835 -0.00456493 1e-05
0.0058297 -0.00468171 1e-05
0.00590109 -0.00479847 1e-05
0.00597262 -0.00491515 1e-05
0.00604356 -0.00503039 1e-05
0.00607975 -0.00508897 1e-05
0.00611596 -0.00514753 1e-05
0.00615217 -0.00520609 1e-05
0.00618841 -0.00526464 1e-05
0.00622475 -0.00532325 1e-05
0.00630359 -0.00545016 1e-05
0.00638261 -0.00557695 1e-05
0.00646183 -0.00570362 1e-05
0.00654133 -0.00583012 1e-05
0.00661893 -0.0059528 1e-05
0.00666272 -0.00602158 1e-05
0.00670656 -0.00609032 1e-05
0.00675046 -0.00615903 1e-05
0.00679444 -0.00622769 1e-05
0.0068388 -0.0062967 1e-05
0.00691079 -0.00640833 1e-05
0.00698304 -0.0065198 1e-05
0.00705555 -0.00663109 1e-05
0.00712836 -0.0067422 1e-05
0.00719878 -0.00684887 1e-05
0.00726929 -0.0069549 1e-05
0.00734003 -0.00706078 1e-05
0.00741099 -0.00716652 1e-05
0.00748225 -0.00727204 1e-05
0.00755504 -0.00737908 1e-05
0.00760066 -0.00744568 1e-05
0.00764641 -0.00751219 1e-05
0.00769228 -0.00757861 1e-05
0.00773829 -0.00764494 1e-05
0.00778313 -0.00770925 1e-05
0.00790091 -0.00787728 1e-05
0.00801946 -0.00804478 1e-05
0.00813878 -0.00821173 1e-05
0.0082591 -0.00837795 1e-05
0.00837203 -0.00853192 1e-05
0.00837946 -0.00854191 1e-05
0.00838689 -0.0085519 1e-05
0.00839432 -0.00856188 1e-05
0.00840176 -0.00857187 1e-05
0.00840922 -0.00858187 1e-05
0.00852048 -0.00873097 1e-05
0.00863257 -0.00887944 1e-05
0.0087455 -0.00902727 1e-05
0.0088593 -0.00917443 1e-05
0.00896551 -0.00930989 1e-05
0.00902975 -0.00939077 1e-05
0.00909426 -0.00947145 1e-05
0.00915903 -0.00955191 1e-05
0.00922409 -0.00963213 1e-05
0.0092913 -0.00971436 1e-05
0.00934576 -0.00978046 1e-05
0.00940042 -0.00984639 1e-05
0.00945528 -0.00991216 1e-05
0.00951033 -0.00997777 1e-05
0.0095636 -0.0100408 1e-05
[...]
POINT_DATA 12278
 FIELD attributes 1
U 3 12278 float
9.72339 	0.381311 	0 9.77871 	0.305049 	0 9.83405 	0.228765 	0 9.8894 	0.152465 	0 9.94476 	0.0761532 	0 10 	0 	0
10.0671 	0.375483 	0 10.0537 	0.300386 	0 10.0403 	0.225271 	0 10.0268 	0.150141 	0 10.0134 	0.0750008 	0 10 	0 	0
10.0364 	0.141572 	0 10.0291 	0.113304 	0 10.0218 	0.0850888 	0 10.0145 	0.0569262 	0 10.0071 	0.0288163 	0 10 	0 	0
10.0137 	0.111518 	0 10.011 	0.0892147 	0 10.0082 	0.0669105 	0 10.0055 	0.044606 	0 10.0027 	0.0223011 	0 10 	0 	0
10.0097 	0.019653 	0 10.0078 	0.0157224 	0 10.0058 	0.0117918 	0 10.0039 	0.00786119 	0 10.0019 	0.00393058 	0 10 	0 	0
10.0102 	-0.0372879 	0 10.0082 	-0.0298303 	0 10.0061 	-0.0223727 	0 10.0041 	-0.0149151 	0 10.002 	-0.00745748 	0 10 	0 	0
10.0174 	-0.148997 	0 10.0139 	-0.119198 	0 10.0105 	-0.0893969 	0 10.007 	-0.0595955 	0 10.0035 	-0.0297933 	0 10 	0 	0
10.0362 	-0.265902 	0 10.029 	-0.212721 	0 10.0217 	-0.159534 	0 10.0145 	-0.106342 	0 10.0072 	-0.0531461 	0 10 	0 	0
10.0563 	-0.387167 	0 10.045 	-0.309734 	0 10.0338 	-0.23228 	0 10.0225 	-0.15481 	0 10.0112 	-0.0773282 	0 10 	0 	0
8.30133 	-0.114495 	0 8.4287 	-0.091596 	0 8.55659 	-0.0686962 	0 8.68498 	-0.0457957 	0 8.81385 	-0.0228949 	0 8.94315 	0 	0
9.72339 	0.381311 	0 9.5415 	0.555241 	0 9.39671 	0.66365 	0 9.26203 	0.754271 	0 9.2183 	0.780385 	0 8.95344 	1.27614 	0 8.70578 	1.91036 	0 8.48173 	2.72184 	0 8.46724 	2.67123 	0 8.47252 	2.45986 	0 8.50117 	2.35314 	0 8.52498 	2.2443 	0 8.51221 	2.16311 	0 8.42487 	2.14738 	0 8.30214 	2.12559 	0 8.30117 	1.9821 	0 8.28715 	1.83798 	0 8.21182 	1.72569 	0 8.035 	1.67507 	0 7.86306 	1.62575 	0 7.68323 	1.56759 	0 7.50177 	1.50875 	0 7.42793 	1.45839 	0 7.36148 	1.40771 	0 7.27865 	1.3467 	0 7.22249 	1.32375 	0 7.16614 	1.3007 	0 7.10958 	1.27753 	0 7.07929 	1.2544 	0 7.05291 	1.2312 	0 6.97394 	1.13838 	0 6.88841 	1.05226 	0 6.79883 	0.980327 	0 6.71192 	0.932081 	0 6.6228 	0.883656 	0 6.55089 	0.833772 	0 6.49229 	0.787585 	0 6.44246 	0.743852 	0 6.3887 	0.699087 	0 6.31694 	0.642265 	0 6.31477 	0.64017 	0 6.3132 	0.638345 	0 6.31172 	0.636558 	0 6.31023 	0.634769 	0 6.30868 	0.632929 	0 6.27132 	0.59706 	0 6.23151 	0.560862 	0 6.18922 	0.524332 	0 6.1444 	0.487464 	0 6.10943 	0.456254 	0 6.07602 	0.420973 	0 6.0457 	0.390999 	0 6.017 	0.364555 	0 5.99442 	0.339606 	0 5.97315 	0.315202 	0 5.95245 	0.289069 	0 5.92972 	0.262727 	0 5.91347 	0.241667 	0 5.90339 	0.222664 	0 5.89181 	0.203599 	0 5.87916 	0.183533 	0 5.86497 	0.163367 	0 5.85625 	0.143804 	0 5.85335 	0.127417 	0 5.84917 	0.111004 	0 5.84295 	0.0943702 	0 5.83547 	0.0776952 	0 5.83338 	0.0589947 	0 5.83628 	0.043123 	0 5.83797 	0.0272518 	0 5.83714 	0.0119559 	0 5.83531 	-0.00340955 	0 5.83917 	-0.0225082 	0 5.84728 	-0.039997 	0 5.8542 	-0.0574316 	0 5.85856 	-0.0734963 	0 5.86179 	-0.0895351 	0 5.87116 	-0.110921 	0 5.88461 	-0.132455 	0 5.89658 	-0.153918 	0 5.90643 	-0.173281 	0 5.915 	-0.192575 	0 5.92932 	-0.218033 	0 5.94819 	-0.246983 	0 5.96518 	-0.275794 	0 5.98111 	-0.302023 	0 5.99541 	-0.328102 	0 6.01444 	-0.359714 	0 6.03853 	-0.400872 	0 6.06013 	-0.441785 	0 6.08246 	-0.480244 	0 6.10465 	-0.520856 	0 6.12995 	-0.567505 	0 6.15442 	-0.619579 	0 6.17854 	-0.679381 	0 6.20591 	-0.738358 	0 6.23725 	-0.811738 	0 6.26471 	-0.884583 	0 6.28835 	-0.95689 	0 6.30846 	-1.0296 	0 6.30849 	-1.02971 	0 6.30852 	-1.02984 	0 6.30855 	-1.02997 	0 6.30859 	-1.0301 	0 6.30862 	-1.03023 	0 6.33237 	-1.12733 	0 6.35087 	-1.22233 	0 6.36426 	-1.31527 	0 6.37499 	-1.41389 	0 6.38825 	-1.53799 	0 6.40604 	-1.66372 	0 6.41759 	-1.78735 	0 6.40548 	-1.92983 	2.6182e-20 6.36907 	-2.07877 	5.36702e-20 6.31892 	-2.23352 	8.11718e-20 6.31069 	-2.28406 	2.32113e-20 6.29848 	-2.33147 	5.63722e-21 6.28209 	-2.37556 	3.11137e-20 6.26513 	-2.4194 	5.72129e-20 6.25077 	-2.45513 	7.91252e-20 6.22439 	-2.55089 	1.7882e-19 6.19607 	-2.64609 	2.82669e-19 6.16581 	-2.7407 	3.90646e-19 6.11969 	-2.82176 	2.74095e-19 6.0632 	-2.90201 	6.24368e-20 5.98325 	-3.02166 	4.92165e-20 5.8981 	-3.13835 	3.61468e-20 5.80124 	-3.23618 	8.52607e-21 5.69998 	-3.33208 	-1.8095e-20 5.62479 	-3.39888 	-3.63075e-20 5.61571 	-3.40812 	-3.61009e-20 5.6066 	-3.41734 	-3.58796e-20 5.59741 	-3.42593 	-3.70221e-20 5.58809 	-3.43283 	-4.17938e-20 5.57864 	-3.4398 	-4.66106e-20 5.45876 	-3.53599 	-2.83423e-20 5.33356 	-3.63023 	-9.50109e-21 5.20753 	-3.70721 	1.00885e-22 5.08131 	-3.76605 	-2.43159e-22 4.93197 	-3.83157 	4.80632e-23 4.9318 	-3.83166 	2.75042e-23 4.93164 	-3.83175 	6.94494e-24 4.93149 	-3.83182 	1.2192e-23 4.93134 	-3.83187 	3.06034e-23 4.9312 	-3.83192 	4.90186e-23 4.80541 	-3.88129 	1.10222e-21 4.67553 	-3.92907 	2.46033e-21 4.54853 	-3.96559 	4.18917e-21 4.43082 	-3.9827 	6.31577e-21 4.33545 	-3.99507 	8.1876e-21 4.30522 	-4.00271 	1.33184e-20 4.27476 	-4.01027 	1.84869e-20 4.24954 	-4.01198 	9.19538e-21 4.22445 	-4.01334 	-8.23677e-22 4.19824 	-4.01469 	-1.12104e-20 4.12435 	-4.02201 	-6.36599e-20 4.04927 	-4.02881 	-1.1574e-19 3.97316 	-4.03492 	-1.65984e-19 3.90891 	-4.02939 	-1.01652e-19 3.85004 	-4.02401 	-4.30561e-20 3.77255 	-4.02615 	4.11971e-21 3.69517 	-4.02541 	4.19005e-20 3.62337 	-4.01332 	3.41093e-20 3.55049 	-4.00075 	2.65883e-20 3.46856 	-3.98629 	1.85681e-20 3.46513 	-3.98586 	1.9211e-20 3.4617 	-3.98543 	1.98542e-20 3.45827 	-3.985 	2.04975e-20 3.45503 	-3.98426 	2.10374e-20 3.45188 	-3.9834 	2.15346e-20 3.38377 	-3.97142 	1.41147e-20 3.31358 	-3.95727 	7.40546e-21 3.24218 	-3.94243 	6.90823e-22 3.17039 	-3.91535 	6.18197e-21 3.10276 	-3.88859 	1.23662e-20 3.06073 	-3.8786 	3.47107e-20 3.0184 	-3.86723 	5.05905e-20 2.97686 	-3.8483 	2.33617e-20 2.93491 	-3.82915 	-3.81043e-21 2.88978 	-3.80849 	-3.27001e-20 2.87159 	-3.80192 	-3.88279e-20 2.85331 	-3.79529 	-4.4958e-20 2.83496 	-3.78861 	-5.10903e-20 2.81669 	-3.77952 	-5.73084e-20 2.7987 	-3.76997 	-6.34444e-20 2.7453 	-3.74892 	-1.07177e-19 2.69107 	-3.72738 	-1.51029e-19 2.63628 	-3.69676 	-1.46192e-19 2.58186 	-3.65939 	-8.81764e-20 2.52933 	-3.6233 	-3.26899e-20 2.51245 	-3.6144 	2.0045e-21 2.49551 	-3.6053 	3.50969e-20 2.47968 	-3.59294 	2.98549e-20 2.46378 	-3.58053 	2.46478e-20 2.44739 	-3.56776 	1.9341e-20 2.41681 	-3.54866 	5.65123e-20 2.38597 	-3.52936 	9.36039e-20 2.35487 	-3.50987 	1.30613e-19 2.32484 	-3.48533 	1.03484e-19 2.29539 	-3.46086 	7.22868e-20 2.25848 	-3.4352 	4.24549e-20 2.22112 	-3.40922 	1.25908e-20 2.18658 	-3.3764 	-2.86468e-21 2.15179 	-3.34324 	-1.80609e-20 2.11469 	-3.30795 	-3.41562e-20 2.11095 	-3.30507 	-3.1713e-20 2.1072 	-3.30218 	-2.92727e-20 2.10345 	-3.29929 	-2.68352e-20 2.09993 	-3.29584 	-3.39434e-20 2.09641 	-3.29237 	-4.1352e-20 2.05968 	-3.26011 	-1.64858e-19 2.02394 	-3.2258 	-2.56847e-19 1.98889 	-3.18969 	-2.99697e-19 1.95665 	-3.14882 	-1.93344e-19 1.92488 	-3.10861 	-8.89974e-20 1.91629 	-3.09894 	-7.79169e-20 1.90767 	-3.08925 	-6.6832e-20 1.90034 	-3.07843 	-5.65706e-20 1.89331 	-3.06734 	-4.64994e-20 1.88622 	-3.05616 	-3.63523e-20 1.86427 	-3.03078 	-1.17981e-20 1.84222 	-3.00529 	1.27775e-20 1.82061 	-2.97913 	2.99767e-20 1.80156 	-2.95015 	1.21354e-20 1.78266 	-2.9214 	-5.54185e-21 1.76926 	-2.90244 	-2.1158e-20 1.75583 	-2.88346 	-3.67623e-20 1.74459 	-2.86318 	-1.81111e-20 1.73428 	-2.84238 	1.47232e-20 1.72398 	-2.82155 	4.76657e-20 1.71165 	-2.80436 	1.21761e-20 1.69929 	-2.78715 	-2.3263e-20 1.68757 	-2.76947 	-3.49e-20 1.67749 	-2.75062 	1.29912e-20 1.66745 	-2.73183 	6.07505e-20 1.6541 	-2.70763 	1.97618e-19 1.64079 	-2.68344 	3.34425e-19 1.62985 	-2.65849 	2.96505e-19 1.62069 	-2.63305 	1.33706e-19 1.61176 	-2.608 	-2.77931e-20 1.60396 	-2.59466 	-5.73024e-20 1.59616 	-2.58132 	-8.68195e-20 1.58918 	-2.56764 	-8.96834e-20 1.5833 	-2.55349 	-5.62156e-20 1.57745 	-2.53936 	-2.27216e-20 1.56744 	-2.51482 	-2.45805e-20 1.55754 	-2.49037 	-2.64792e-20 1.54959 	-2.46581 	-1.92622e-20 1.54413 	-2.44109 	-4.07749e-22 1.53905 	-2.41725 	1.78655e-20 1.53242 	-2.4028 	2.98158e-20 1.52581 	-2.38837 	4.17614e-20 1.52051 	-2.37371 	4.57939e-20 1.51616 	-2.35892 	4.41765e-20 1.51185 	-2.34408 	4.25294e-20 1.50659 	-2.32431 	2.56202e-20 1.50147 	-2.30465 	8.68529e-21 1.49742 	-2.2852 	-3.11996e-21 1.49606 	-2.26611 	-1.10386e-21 1.49496 	-2.24791 	8.32839e-22 1.488 	-2.22744 	7.60914e-20 1.48115 	-2.20707 	1.51576e-19 1.47689 	-2.18686 	1.25558e-19 1.47356 	-2.1668 	6.76909e-20 1.47034 	-2.14655 	9.00191e-21 1.46912 	-2.13596 	-2.35125e-20 1.46797 	-2.12542 	-5.59829e-20 1.46708 	-2.11505 	-8.23831e-20 1.46861 	-2.10612 	-3.66712e-20 1.47018 	-2.09752 	7.88305e-21 1.46305 	-2.06729 	4.60547e-21 1.45622 	-2.03735 	1.31011e-21 1.45548 	-2.01078 	-2.35702e-20 1.45604 	-1.98507 	-5.18547e-20 1.45859 	-1.96206 	-7.51094e-20 1.45813 	-1.96017 	-6.89992e-20 1.45768 	-1.95828 	-6.29359e-20 1.45763 	-1.95659 	-6.75126e-20 1.45758 	-1.9549 	-7.2087e-20 1.45754 	-1.95321 	-7.66711e-20 1.45565 	-1.9282 	-2.10132e-19 1.45414 	-1.9035 	-3.42855e-19 1.45336 	-1.87938 	-4.4769e-19 1.45763 	-1.85909 	-1.91609e-19 1.462 	-1.84067 	4.72533e-20 1.45986 	-1.82584 	1.1098e-19 1.45785 	-1.81111 	1.74535e-19 1.45876 	-1.7985 	1.42001e-19 1.4598 	-1.78598 	1.09567e-19 1.461 	-1.77322 	7.63224e-20 1.46193 	-1.76358 	6.73274e-20 1.46294 	-1.754 	5.83547e-20 1.46404 	-1.7445 	4.94046e-20 1.46667 	-1.73625 	5.14984e-20 1.46936 	-1.72842 	5.40303e-20 1.46885 	-1.70515 	2.93344e-20 1.4687 	-1.68216 	4.57664e-21 1.47164 	-1.66161 	2.04122e-20 1.47619 	-1.64211 	4.55041e-20 1.48214 	-1.62499 	6.87383e-20 1.48212 	-1.62101 	6.76455e-20 1.48221 	-1.6171 	6.78038e-20 1.48278 	-1.61356 	7.51923e-20 1.48337 	-1.61003 	8.25788e-20 1.48398 	-1.60647 	9.00497e-20 1.4867 	-1.59064 	1.39696e-19 1.48969 	-1.57501 	1.89219e-19 1.49295 	-1.55958 	2.38615e-19 1.49816 	-1.546 	1.68574e-19 1.5036 	-1.53376 	8.1876e-20 1.50526 	-1.51435 	1.54883e-19 1.50776 	-1.49567 	2.02775e-19 1.51237 	-1.47892 	1.61108e-19 1.51731 	-1.46243 	1.19967e-19 1.52299 	-1.44501 	7.63829e-20 1.52304 	-1.44487 	7.58623e-20 1.52309 	-1.44473 	7.53418e-20 1.52315 	-1.44458 	7.48214e-20 1.52321 	-1.44446 	7.55139e-20 1.52327 	-1.44433 	7.6736e-20 1.52764 	-1.42728 	1.2777e-19 1.53246 	-1.41052 	1.75824e-19 1.53765 	-1.39402 	2.23486e-19 1.54444 	-1.37932 	1.84466e-19 1.55155 	-1.36639 	1.17334e-19 1.5549 	-1.34877 	2.0337e-19 1.55913 	-1.33207 	2.38462e-19 1.56479 	-1.31692 	1.7371e-19 1.57078 	-1.30201 	1.09173e-19 1.5771 	-1.28844 	3.79354e-20 1.57731 	-1.28755 	3.77081e-20 1.57756 	-1.28669 	3.69584e-20 1.57785 	-1.2859 	3.55501e-20 1.57814 	-1.2851 	3.41415e-20 1.57843 	-1.2843 	3.27255e-20 1.58368 	-1.27025 	-1.30741e-20 1.58924 	-1.25641 	-5.87935e-20 1.5951 	-1.24276 	-1.0443e-19 1.60185 	-1.23033 	-8.93898e-20 1.60896 	-1.21953 	-2.97414e-20 1.61342 	-1.20401 	-7.51312e-20 1.6182 	-1.18869 	-1.20935e-19 1.6243 	-1.17533 	-1.02872e-19 1.63157 	-1.16265 	-6.09375e-20 1.63961 	-1.15126 	3.30931e-22 1.64187 	-1.14453 	2.83901e-20 1.64445 	-1.13829 	2.78799e-20 1.64727 	-1.13242 	7.02082e-21 1.65016 	-1.12658 	-1.37888e-20 1.65325 	-1.12049 	-3.55718e-20 1.65693 	-1.11357 	-6.79008e-20 1.66071 	-1.10671 	-1.00115e-19 1.66458 	-1.0999 	-1.32214e-19 1.66868 	-1.09353 	-1.31736e-19 1.67297 	-1.08798 	-7.98876e-20 1.67813 	-1.07424 	-1.11927e-19 1.68414 	-1.06096 	-1.36541e-19 1.69149 	-1.04857 	-1.45773e-19 1.69969 	-1.03796 	-1.35442e-19 1.70778 	-1.02799 	-1.25451e-19 1.71358 	-1.01447 	-2.75764e-19 1.71986 	-1.00179 	-3.48659e-19 1.72675 	-0.990349 	-2.94594e-19 1.73391 	-0.979066 	-2.41038e-19 1.74219 	-0.968973 	-1.16175e-19 1.74425 	-0.964732 	-8.33919e-20 1.74645 	-0.960931 	-8.55691e-20 1.74871 	-0.957261 	-9.71709e-20 1.751 	-0.953607 	-1.08727e-19 1.75342 	-0.949815 	-1.20721e-19 1.75834 	-0.942369 	-1.24373e-19 1.76338 	-0.934991 	-1.27996e-19 1.76854 	-0.927682 	-1.31592e-19 1.77385 	-0.920666 	-1.29753e-19 1.77925 	-0.914833 	-1.0509e-19 1.78531 	-0.902901 	-1.32704e-19 1.79235 	-0.891529 	-1.45077e-19 1.8003 	-0.880674 	-1.43846e-19 1.80863 	-0.87162 	-1.02887e-19 1.81692 	-0.863087 	-6.08597e-20 1.82354 	-0.851395 	-1.64828e-19 1.83043 	-0.839883 	-2.65659e-19 1.8376 	-0.830189 	-2.24355e-19 1.84581 	-0.821071 	-1.27952e-19 1.85449 	-0.812624 	4.62361e-23 1.86106 	-0.802157 	1.43663e-22 1.86779 	-0.793309 	1.09313e-22 1.8747 	-0.784601 	7.10286e-23 1.88181 	-0.775991 	3.23223e-23 1.89011 	-0.76631 	-1.21851e-23 1.89055 	-0.765818 	8.43457e-22 1.891 	-0.765327 	1.69844e-21 1.89145 	-0.764836 	2.55275e-21 1.8919 	-0.764345 	3.40641e-21 1.89234 	-0.763951 	5.04111e-22 1.89981 	-0.754485 	-2.58495e-20 1.90761 	-0.745201 	-4.77141e-20 1.91563 	-0.736028 	-6.94003e-20 1.92387 	-0.726992 	-8.98131e-20 1.93178 	-0.720003 	-3.11252e-20 1.93868 	-0.710047 	-2.10548e-20 1.94624 	-0.700521 	-1.37793e-20 1.95463 	-0.691538 	-1.02676e-20 1.9628 	-0.684278 	-1.59129e-20 1.97095 	-0.67741 	-2.23794e-20 1.97827 	-0.667703 	5.40167e-20 1.98582 	-0.658099 	1.30525e-19 1.99324 	-0.650016 	1.32367e-19 2.00155 	-0.64307 	6.57263e-20 2.0099 	-0.636326 	1.62125e-22 2.01761 	-0.626875 	9.59928e-23 2.02515 	-0.61851 	-1.1316e-20 2.03258 	-0.61097 	-3.11612e-20 2.04018 	-0.603508 	-5.09826e-20 2.04865 	-0.596862 	-6.40768e-20 2.0555 	-0.589231 	-1.06233e-19 2.06196 	-0.582781 	-1.09758e-19 2.06857 	-0.576388 	-1.13341e-19 2.07531 	-0.570051 	-1.16982e-19 2.08319 	-0.562845 	-1.21225e-19 2.08402 	-0.562117 	-1.22519e-19 2.08486 	-0.561391 	-1.23813e-19 2.08569 	-0.560664 	-1.25106e-19 2.08653 	-0.559939 	-1.26398e-19 2.08729 	-0.55935 	-1.22017e-19 2.09475 	-0.552044 	-9.41605e-20 2.10245 	-0.544887 	-6.49176e-20 2.11033 	-0.537799 	-3.57127e-20 2.11837 	-0.53078 	-6.54587e-21 2.12563 	-0.5253 	1.79158e-22 2.13279 	-0.517535 	6.74904e-20 2.14062 	-0.510549 	8.67769e-20 2.14863 	-0.503657 	1.03911e-19 2.15629 	-0.497591 	8.42346e-20 2.1633 	-0.492673 	1.4804e-20 2.17069 	-0.485151 	-5.51386e-20 2.1783 	-0.477774 	-1.1919e-19 2.18637 	-0.471143 	-1.35008e-19 2.19328 	-0.466279 	-6.72738e-20 2.20026 	-0.461498 	-7.20614e-23 2.20785 	-0.45422 	-3.91696e-23 2.21562 	-0.447 	-6.45003e-24 2.22273 	-0.441141 	0 2.22957 	-0.436424 	0 2.23647 	-0.431782 	0 2.24423 	-0.424745 	0 2.2519 	-0.418035 	0 2.2584 	-0.412801 	0 2.2651 	-0.408023 	-1.0068e-20 2.2719 	-0.403519 	-2.50921e-20 2.27979 	-0.396721 	-6.15674e-21 2.2867 	-0.391093 	-6.39147e-21 2.2932 	-0.386043 	-1.58572e-20 2.29982 	-0.381056 	-2.66302e-20 2.30649 	-0.376689 	-6.6376e-20 2.3142 	-0.370384 	-2.855e-20 2.32054 	-0.365484 	-3.03383e-20 2.32701 	-0.360618 	-3.20984e-20 2.3336 	-0.355784 	-3.38304e-20 2.34019 	-0.351266 	-4.6439e-20 2.34639 	-0.346446 	-3.69698e-20 2.35195 	-0.342268 	-3.84074e-20 2.3576 	-0.338113 	-3.9824e-20 2.36334 	-0.333982 	-4.12195e-20 2.37013 	-0.329209 	-4.28171e-20 2.3707 	-0.328816 	-4.26865e-20 2.37128 	-0.328423 	-4.25561e-20 2.37185 	-0.328031 	-4.24259e-20 2.37243 	-0.327639 	-4.22959e-20 2.37294 	-0.327307 	-4.24918e-20 2.3791 	-0.322716 	-4.93949e-20 2.38537 	-0.318181 	-5.39408e-20 2.39174 	-0.313675 	-5.84098e-20 2.39822 	-0.309196 	-6.28024e-20 2.40385 	-0.305474 	-3.89403e-20 2.41018 	-0.300758 	-7.53045e-20 2.41634 	-0.2964 	-8.74356e-20 2.42261 	-0.292066 	-9.95078e-20 2.42899 	-0.287758 	-1.11522e-19 2.43362 	-0.284777 	-7.12583e-20 2.44019 	-0.279993 	-1.1869e-19 2.44623 	-0.275807 	-1.21215e-19 2.45238 	-0.271645 	-1.23693e-19 2.45826 	-0.267746 	-1.18983e-19 2.46223 	-0.265183 	-7.53265e-20 2.46884 	-0.260568 	-1.17857e-19 2.47501 	-0.256363 	-1.2813e-19 2.48101 	-0.25237 	-1.22522e-19 2.48594 	-0.249113 	-9.48048e-20 2.48967 	-0.246656 	-4.32011e-20 2.49626 	-0.242244 	4.31597e-20 2.50265 	-0.238025 	1.0406e-19 2.50849 	-0.234197 	1.09552e-19 2.51246 	-0.231513 	5.03899e-20 2.51595 	-0.229159 	-2.66794e-20 2.52249 	-0.224947 	-1.75761e-20 2.52914 	-0.220753 	-8.48254e-21 2.53465 	-0.217173 	8.6694e-21 2.53782 	-0.214907 	2.59584e-20 2.54105 	-0.212654 	4.32222e-20 2.54753 	-0.208637 	-4.33252e-20 2.55411 	-0.204637 	-1.29885e-19 2.5591 	-0.201419 	-1.41219e-19 2.56201 	-0.199253 	-7.10555e-20 2.56498 	-0.197099 	-9.90661e-22 2.57139 	-0.193274 	-7.77847e-23 2.57789 	-0.189464 	8.14307e-22 2.5824 	-0.186581 	-1.56435e-20 2.58505 	-0.184514 	-4.93919e-20 2.58775 	-0.182457 	-8.31154e-20 2.59407 	-0.178818 	-4.76592e-20 2.60048 	-0.175193 	-1.22187e-20 2.60455 	-0.17262 	-8.54704e-21 2.60693 	-0.170649 	-2.59312e-20 2.60937 	-0.168686 	-4.32997e-20 2.61559 	-0.165231 	-2.59885e-20 2.62189 	-0.16179 	-8.73232e-21 2.62549 	-0.159514 	-9.47617e-21 2.62768 	-0.157619 	-2.60545e-20 2.62985 	-0.155749 	-4.33805e-20 2.63596 	-0.152471 	-1.64892e-19 2.6416 	-0.14942 	-2.61667e-19 2.64505 	-0.147262 	-2.5698e-19 2.64731 	-0.145385 	-1.64753e-19 2.64921 	-0.143606 	-4.33608e-20 2.6552 	-0.140501 	-2.59823e-20 2.66021 	-0.137797 	-8.62136e-21 2.66349 	-0.135755 	8.70916e-21 2.66584 	-0.133909 	2.13164e-20 2.66747 	-0.132219 	3.02584e-20 2.67334 	-0.129282 	9.13284e-20 2.67773 	-0.126887 	1.18653e-19 2.68084 	-0.124957 	1.1698e-19 2.68328 	-0.123156 	9.21196e-20 2.68466 	-0.121551 	3.16813e-20 2.6904 	-0.118778 	2.32389e-20 2.6942 	-0.116658 	1.48127e-20 2.69715 	-0.114836 	6.39159e-21 2.69968 	-0.113088 	0 2.70079 	-0.111568 	0 2.7064 	-0.108953 	0 2.70965 	-0.107077 	1.473e-20 2.71243 	-0.105359 	3.25605e-20 2.71505 	-0.103673 	5.03759e-20 2.71592 	-0.102234 	6.8118e-20 2.72139 	-0.0997731 	1.90118e-19 2.7241 	-0.0981127 	1.93574e-19 2.72672 	-0.096496 	1.91049e-19 2.72938 	-0.0948826 	1.88573e-19 2.73005 	-0.0935171 	7.02233e-20 2.73519 	-0.0912563 	5.32085e-20 2.7376 	-0.0897343 	3.62468e-20 2.74006 	-0.0882151 	1.9277e-20 2.74256 	-0.0866986 	2.29898e-21 2.74323 	-0.0853845 	1.46932e-20 2.74792 	-0.0833404 	-4.35135e-24 2.75018 	-0.0819126 	-2.98976e-23 2.75248 	-0.0804872 	-5.54338e-23 2.75481 	-0.0790642 	-8.09598e-23 2.7555 	-0.0778057 	6.38702e-21 2.75976 	-0.0759565 	-5.07903e-20 2.76187 	-0.0746193 	-4.94918e-20 2.76401 	-0.0732842 	-4.82207e-20 2.76619 	-0.0719512 	-4.6977e-20 2.76687 	-0.0707513 	-5.64199e-21 2.77074 	-0.0690774 	8.56043e-23 2.7727 	-0.0678272 	6.04973e-23 2.77469 	-0.0665788 	3.53805e-23 2.77672 	-0.0653322 	1.02541e-23 2.7774 	-0.064193 	0 2.78091 	-0.062677 	1.11958e-20 2.78272 	-0.0615102 	3.75196e-20 2.78457 	-0.0603449 	6.38347e-20 2.78645 	-0.0591812 	9.01411e-20 2.78712 	-0.0581038 	1.07507e-19 2.79029 	-0.0567299 	1.73087e-19 2.79197 	-0.055643 	1.72009e-19 2.79367 	-0.0545573 	1.70959e-19 2.79541 	-0.053473 	1.69936e-19 2.79607 	-0.0524579 	1.02499e-19 2.79893 	-0.0512122 	8.75859e-20 2.80047 	-0.0502015 	5.31516e-20 2.80205 	-0.049192 	1.87119e-20 2.80365 	-0.0481835 	-1.57333e-20 2.80428 	-0.0472305 	-4.66897e-20 2.80686 	-0.0461004 	-9.01917e-20 2.80828 	-0.0451625 	-8.89836e-20 2.80972 	-0.0442256 	-8.78094e-20 2.81119 	-0.0432896 	-8.66689e-20 2.8118 	-0.042398 	-3.7054e-20 2.81412 	-0.0413723 	-4.95242e-20 2.81541 	-0.0405038 	-3.17029e-20 2.81674 	-0.039636 	-1.38996e-20 2.81809 	-0.0387691 	3.88594e-21 2.81866 	-0.0379376 	4.31048e-20 2.82074 	-0.0370065 	4.98701e-20 2.82193 	-0.0362039 	6.73416e-20 2.82313 	-0.0354019 	8.48048e-20 2.82436 	-0.0346007 	1.0226e-19 2.8249 	-0.0338279 	1.22074e-19 2.82677 	-0.0329823 	1.4621e-19 2.82784 	-0.0322423 	1.36987e-19 2.82894 	-0.0315029 	1.27785e-19 2.83006 	-0.0307639 	1.18604e-19 2.83055 	-0.030048 	8.16943e-20 2.83223 	-0.0292802 	5.80681e-20 2.83321 	-0.0285995 	3.23195e-20 2.8342 	-0.0279192 	6.56905e-21 2.83521 	-0.0272394 	-1.91832e-20 2.83565 	-0.0265782 	-4.10495e-20 2.83717 	-0.0258812 	-5.61263e-20 2.83805 	-0.0252565 	-3.83509e-20 2.83894 	-0.0246322 	-2.06016e-20 2.83985 	-0.0240083 	-2.87825e-21 2.84024 	-0.0233996 	4.84755e-20 2.84161 	-0.0227671 	1.0224e-19 2.8424 	-0.0221953 	1.09918e-19 2.8432 	-0.0216239 	1.1764e-19 2.84402 	-0.0210527 	1.25405e-19 2.84434 	-0.0204942 	8.86169e-20 2.84559 	-0.0199206 	7.18097e-20 2.8463 	-0.0193987 	6.32661e-20 2.84701 	-0.018877 	5.47184e-20 2.84775 	-0.0183555 	4.61666e-20 2.848 	-0.0178447 	3.76174e-20 2.84915 	-0.017325 	1.44744e-20 2.84977 	-0.0168499 	1.48237e-20 2.85041 	-0.016375 	1.51504e-20 2.85106 	-0.0159003 	1.54546e-20 2.85124 	-0.0154347 	4.14792e-20 2.8523 	-0.0149643 	3.98666e-20 2.85285 	