# vtk DataFile Version 2.0
track0
ASCII
DATASET POLYDATA
POINTS 12278 float
-0.0205 0.001 1e-05
-0.02052 0.000999216 1e-05
-0.02054 0.000998592 1e-05
-0.02056 0.000998126 1e-05
-0.02058 0.000997818 1e-05
-0.0206 0.000997665 1e-05
-0.0205 0.00367778 1e-05
-0.02052 0.00367703 1e-05
-0.02054 0.00367643 1e-05
-0.02056 0.00367599 1e-05
-0.02058 0.00367569 1e-05
-0.0206 0.00367554 1e-05
-0.0205 0.00635556 1e-05
-0.02052 0.00635527 1e-05
-0.02054 0.00635505 1e-05
-0.02056 0.00635488 1e-05
-0.02058 0.00635476 1e-05
-0.0206 0.00635471 1e-05
-0.0205 0.00903333 1e-05
-0.02052 0.00903311 1e-05
-0.02054 0.00903293 1e-05
-0.02056 0.0090328 1e-05
-0.02058 0.00903271 1e-05
-0.0206 0.00903266 1e-05
-0.0205 0.0117111 1e-05
-0.02052 0.0117111 1e-05
-0.02054 0.011711 1e-05
-0.02056 0.011711 1e-05
-0.02058 0.011711 1e-05
-0.0206 0.011711 1e-05
-0.0205 0.0143889 1e-05
-0.02052 0.014389 1e-05
-0.02054 0.014389 1e-05
-0.02056 0.0143891 1e-05
-0.02058 0.0143891 1e-05
-0.0206 0.0143891 1e-05
-0.0205 0.0170667 1e-05
-0.02052 0.017067 1e-05
-0.02054 0.0170672 1e-05
-0.02056 0.0170674 1e-05
-0.02058 0.0170675 1e-05
-0.0206 0.0170676 1e-05
-0.0205 0.0197444 1e-05
-0.02052 0.019745 1e-05
-0.02054 0.0197454 1e-05
-0.02056 0.0197457 1e-05
-0.02058 0.0197459 1e-05
-0.0206 0.019746 1e-05
-0.0205 0.0224222 1e-05
-0.02052 0.022423 1e-05
-0.02054 0.0224236 1e-05
-0.02056 0.0224241 1e-05
-0.02058 0.0224244 1e-05
-0.0206 0.0224245 1e-05
-0.0205 0.0251 1e-05
-0.02052 0.0251003 1e-05
-0.02054 0.0251005 1e-05
-0.02056 0.0251007 1e-05
-0.02058 0.0251008 1e-05
-0.0206 0.0251008 1e-05
-0.0205 0.001 1e-05
-0.0203632 0.00100536 1e-05
-0.0202266 0.00101331 1e-05
-0.0200901 0.00102296 1e-05
-0.0200427 0.00102682 1e-05
-0.0198376 0.00104418 1e-05
-0.0196338 0.00107322 1e-05
-0.0194327 0.00111734 1e-05
-0.0192367 0.00118023 1e-05
-0.0190172 0.00124951 1e-05
-0.0189002 0.00128348 1e-05
-0.0187827 0.00131598 1e-05
-0.0186649 0.001347 1e-05
-0.0185468 0.001377 1e-05
-0.0183807 0.00141936 1e-05
-0.018204 0.00146457 1e-05
-0.0180267 0.00150692 1e-05
-0.0178487 0.00154639 1e-05
-0.0176703 0.00158388 1e-05
-0.0174976 0.00161989 1e-05
-0.0172846 0.00166393 1e-05
-0.0170715 0.0017074 1e-05
-0.0168582 0.00175029 1e-05
-0.0166448 0.00179219 1e-05
-0.0163944 0.00184007 1e-05
-0.0163233 0.00185323 1e-05
-0.0162521 0.00186627 1e-05
-0.0161809 0.00187919 1e-05
-0.0161097 0.00189199 1e-05
-0.0160387 0.00190457 1e-05
-0.0157586 0.00195347 1e-05
-0.0154779 0.00199927 1e-05
-0.0151968 0.00204221 1e-05
-0.0149154 0.00208279 1e-05
-0.0146381 0.0021213 1e-05
-0.0143837 0.00215523 1e-05
-0.0141292 0.00218763 1e-05
-0.0138744 0.00221853 1e-05
-0.0136195 0.00224796 1e-05
-0.0132934 0.00228364 1e-05
-0.013279 0.00228511 1e-05
-0.0132646 0.00228657 1e-05
-0.0132502 0.00228803 1e-05
-0.0132357 0.00228949 1e-05
-0.0132209 0.00229098 1e-05
-0.0129772 0.00231543 1e-05
-0.0127334 0.00233864 1e-05
-0.0124895 0.0023606 1e-05
-0.0122455 0.00238128 1e-05
-0.0120025 0.00240056 1e-05
-0.0117547 0.00241908 1e-05
-0.0115067 0.00243627 1e-05
-0.0112587 0.00245233 1e-05
-0.0110106 0.00246737 1e-05
-0.0107632 0.0024814 1e-05
-0.0105252 0.00249398 1e-05
-0.0102872 0.00250556 1e-05
-0.0100491 0.00251613 1e-05
-0.00981105 0.00252588 1e-05
-0.00957337 0.00253488 1e-05
-0.00934491 0.0025428 1e-05
-0.00911643 0.00254996 1e-05
-0.00888792 0.00255636 1e-05
-0.0086594 0.00256201 1e-05
-0.00843108 0.00256702 1e-05
-0.00821175 0.00257123 1e-05
-0.00799241 0.00257481 1e-05
-0.00777306 0.00257778 1e-05
-0.0075537 0.00258005 1e-05
-0.00733443 0.00258172 1e-05
-0.00712387 0.00258276 1e-05
-0.0069133 0.00258325 1e-05
-0.00670273 0.00258319 1e-05
-0.00649216 0.00258244 1e-05
-0.0062816 0.00258107 1e-05
-0.00607944 0.00257916 1e-05
-0.0058773 0.0025767 1e-05
-0.00567516 0.00257369 1e-05
-0.00547303 0.00256995 1e-05
-0.00527083 0.00256548 1e-05
-0.00507675 0.00256051 1e-05
-0.00488269 0.0025549 1e-05
-0.00468865 0.00254868 1e-05
-0.00449464 0.00254164 1e-05
-0.00430044 0.00253368 1e-05
-0.00411412 0.00252517 1e-05
-0.00392783 0.00251587 1e-05
-0.00374159 0.00250579 1e-05
-0.0035554 0.00249476 1e-05
-0.00336883 0.0024825 1e-05
-0.00318995 0.00246958 1e-05
-0.00301115 0.00245558 1e-05
-0.00283244 0.00244047 1e-05
-0.00265385 0.00242407 1e-05
-0.00247443 0.00240614 1e-05
-0.0023027 0.00238739 1e-05
-0.00213114 0.00236713 1e-05
-0.00195981 0.00234499 1e-05
-0.00178873 0.00232099 1e-05
-0.00161577 0.00229484 1e-05
-0.00161101 0.00229407 1e-05
-0.00160625 0.0022933 1e-05
-0.00160148 0.00229252 1e-05
-0.00159672 0.00229174 1e-05
-0.00159208 0.00229098 1e-05
-0.00143195 0.00226462 1e-05
-0.0012722 0.00223604 1e-05
-0.00111285 0.0022053 1e-05
-0.000953916 0.00217246 1e-05
-0.000791418 0.0021365 1e-05
-0.000633135 0.00209855 1e-05
-0.000475553 0.00205779 1e-05
-0.000318709 0.00201428 1e-05
-0.000162804 0.00196751 1e-05
0 0.00191457 1e-05
4.01962e-05 0.00190041 1e-05
8.02769e-05 0.00188593 1e-05
0.000120244 0.00187114 1e-05
0.000160098 0.00185604 1e-05
0.000192177 0.00184362 1e-05
0.000259419 0.0018171 1e-05
0.000326279 0.00178964 1e-05
0.000392744 0.00176123 1e-05
0.000458801 0.00173189 1e-05
0.000528387 0.00169987 1e-05
0.000634886 0.00164907 1e-05
0.000740282 0.00159601 1e-05
0.000844516 0.00154071 1e-05
0.000947631 0.00148335 1e-05
0.00103082 0.00143485 1e-05
0.00103683 0.00143121 1e-05
0.00104284 0.00142756 1e-05
0.00104884 0.0014239 1e-05
0.00105484 0.00142023 1e-05
0.00106088 0.00141653 1e-05
0.00116821 0.00135055 1e-05
0.00127404 0.00128219 1e-05
0.00137828 0.00121144 1e-05
0.001481 0.0011385 1e-05
0.00159752 0.00105235 1e-05
0.00159936 0.00105092 1e-05
0.00160119 0.0010495 1e-05
0.00160303 0.00104807 1e-05
0.00160486 0.00104664 1e-05
0.00160669 0.00104522 1e-05
0.00170141 0.000971517 1e-05
0.00179471 0.00089602 1e-05
0.00188652 0.00081871 1e-05
0.00197691 0.000739751 1e-05
0.00204718 0.000676438 1e-05
0.00206541 0.000659599 1e-05
0.00208357 0.000642685 1e-05
0.00210166 0.000625697 1e-05
0.0021197 0.000608656 1e-05
0.00213833 0.000590962 1e-05
0.00219328 0.000538435 1e-05
0.0022477 0.000485352 1e-05
0.00230156 0.000431703 1e-05
0.00235484 0.000377482 1e-05
0.00240244 0.000328288 1e-05
0.00245862 0.000269373 1e-05
0.00251419 0.000209883 1e-05
0.00256916 0.000149836 1e-05
0.00262363 8.93409e-05 1e-05
0.00268334 2.19003e-05 1e-05
0.00268714 1.75203e-05 1e-05
0.00269094 1.31376e-05 1e-05
0.00269474 8.75222e-06 1e-05
0.00269853 4.36424e-06 1e-05
0.0027023 0 1e-05
0.00276591 -7.374e-05 1e-05
0.00282888 -0.000148021 1e-05
0.0028912 -0.000222851 1e-05
0.00295284 -0.00029824 1e-05
0.00300953 -0.000368669 1e-05
0.00305414 -0.000424942 1e-05
0.00309844 -0.000481456 1e-05
0.00314245 -0.000538208 1e-05
0.0031862 -0.000595153 1e-05
0.00323259 -0.000656101 1e-05
0.00325127 -0.000680903 1e-05
0.0032699 -0.000705749 1e-05
0.00328847 -0.000730639 1e-05
0.00330697 -0.000755574 1e-05
0.0033251 -0.000780107 1e-05
0.00339265 -0.000871891 1e-05
0.00345957 -0.000964129 1e-05
0.00352584 -0.00105683 1e-05
0.00359155 -0.00114994 1e-05
0.00365366 -0.00123896 1e-05
0.00368015 -0.00127734 1e-05
0.00370656 -0.00131579 1e-05
0.00373289 -0.00135429 1e-05
0.00375915 -0.00139283 1e-05
0.00378611 -0.00143251 1e-05
0.00382915 -0.00149609 1e-05
0.00387198 -0.00155982 1e-05
0.00391457 -0.00162371 1e-05
0.00395693 -0.00168775 1e-05
0.00399811 -0.00175039 1e-05
0.00406727 -0.00185625 1e-05
0.00413596 -0.00196243 1e-05
0.00420417 -0.00206891 1e-05
0.00427204 -0.00217562 1e-05
0.00434393 -0.00228946 1e-05
0.00434778 -0.0022956 1e-05
0.00435163 -0.00230175 1e-05
0.00435547 -0.00230789 1e-05
0.00435931 -0.00231404 1e-05
0.00436315 -0.00232017 1e-05
0.00444244 -0.0024471 1e-05
0.00452127 -0.00257431 1e-05
0.00459966 -0.0027018 1e-05
0.00467762 -0.00282955 1e-05
0.00475367 -0.00295472 1e-05
0.00478416 -0.00300511 1e-05
0.0048146 -0.00305553 1e-05
0.00484499 -0.00310597 1e-05
0.00487537 -0.00315642 1e-05
0.00490609 -0.00320746 1e-05
0.00496068 -0.00329821 1e-05
0.00501512 -0.00338904 1e-05
0.00506941 -0.00347997 1e-05
0.00512356 -0.00357099 1e-05
0.00517713 -0.00366117 1e-05
0.00523623 -0.00376077 1e-05
0.00529524 -0.00386043 1e-05
0.00535418 -0.00396014 1e-05
0.00541312 -0.00405984 1e-05
0.00547262 -0.00416041 1e-05
0.00550662 -0.00421781 1e-05
0.00554058 -0.00427524 1e-05
0.00557451 -0.00433268 1e-05
0.00560842 -0.00439013 1e-05
0.00564224 -0.00444742 1e-05
0.00572251 -0.00458334 1e-05
0.00580278 -0.00471925 1e-05
0.00588306 -0.00485516 1e-05
0.00596348 -0.00499098 1e-05
0.00604356 -0.0051257 1e-05
0.00606702 -0.00516501 1e-05
0.00609047 -0.00520432 1e-05
0.00611393 -0.00524363 1e-05
0.00613739 -0.00528294 1e-05
0.00616088 -0.00532225 1e-05
0.00625249 -0.00547542 1e-05
0.00634432 -0.00562845 1e-05
0.00643636 -0.00578136 1e-05
0.00652876 -0.00593405 1e-05
0.00661893 -0.00608197 1e-05
0.00664513 -0.00612464 1e-05
0.00667135 -0.0061673 1e-05
0.00669758 -0.00620995 1e-05
0.00672384 -0.00625258 1e-05
0.00675021 -0.00629532 1e-05
0.00683993 -0.0064404 1e-05
0.00693002 -0.00658525 1e-05
0.00702051 -0.00672985 1e-05
0.00711146 -0.00687416 1e-05
0.00719878 -0.00701139 1e-05
0.00724577 -0.00708457 1e-05
0.00729285 -0.00715768 1e-05
0.00734003 -0.00723073 1e-05
0.00738736 -0.00730368 1e-05
0.00743532 -0.00737729 1e-05
0.00750488 -0.00748352 1e-05
0.00757475 -0.00758955 1e-05
0.00764494 -0.00769538 1e-05
0.00771545 -0.00780099 1e-05
0.00778313 -0.0079015 1e-05
0.0078752 -0.00803712 1e-05
0.00796777 -0.00817241 1e-05
0.00806083 -0.00830735 1e-05
0.00815456 -0.00844183 1e-05
0.00825169 -0.00857972 1e-05
0.00827576 -0.00861349 1e-05
0.00829987 -0.00864724 1e-05
0.00832402 -0.00868096 1e-05
0.00834821 -0.00871465 1e-05
0.00837203 -0.00874772 1e-05
0.00849073 -0.00891203 1e-05
0.00861038 -0.00907565 1e-05
0.00873101 -0.00923855 1e-05
0.00885274 -0.00940062 1e-05
0.00896551 -0.00954842 1e-05
0.00899082 -0.0095811 1e-05
0.00901617 -0.00961375 1e-05
0.00904156 -0.00964635 1e-05
0.009067 -0.00967892 1e-05
0.00909279 -0.00971182 1e-05
0.00918695 -0.00983158 1e-05
0.00928176 -0.00995082 1e-05
0.00937724 -0.0100695 1e-05
0.00947338 -0.0101877 1e-05
0.0095636 -0.0102972 1e-05
[...]
POINT_DATA 12278
 FIELD attributes 1
U 3 12278 float
9.72339 	0.38131 	0 9.77872 	0.305048 	0 9.83405 	0.228765 	0 9.8894 	0.152465 	0 9.94476 	0.076153 	0 10 	0 	0
10.0671 	0.375472 	0 10.0537 	0.300378 	0 10.0403 	0.225265 	0 10.0268 	0.150137 	0 10.0134 	0.0749987 	0 10 	0 	0
10.0364 	0.141562 	0 10.0291 	0.113296 	0 10.0218 	0.0850831 	0 10.0145 	0.0569224 	0 10.0071 	0.0288144 	0 10 	0 	0
10.0137 	0.111504 	0 10.011 	0.089203 	0 10.0082 	0.0669017 	0 10.0055 	0.0446001 	0 10.0027 	0.0222982 	0 10 	0 	0
10.0097 	0.0196421 	0 10.0078 	0.0157137 	0 10.0058 	0.0117852 	0 10.0039 	0.00785682 	0 10.0019 	0.0039284 	0 10 	0 	0
10.0102 	-0.037299 	0 10.0082 	-0.0298392 	0 10.0061 	-0.0223794 	0 10.0041 	-0.0149195 	0 10.002 	-0.0074597 	0 10 	0 	0
10.0174 	-0.149011 	0 10.0139 	-0.119209 	0 10.0105 	-0.0894052 	0 10.007 	-0.059601 	0 10.0035 	-0.0297961 	0 10 	0 	0
10.0362 	-0.265914 	0 10.029 	-0.212731 	0 10.0217 	-0.159542 	0 10.0145 	-0.106347 	0 10.0072 	-0.0531484 	0 10 	0 	0
10.0563 	-0.387175 	0 10.045 	-0.30974 	0 10.0338 	-0.232284 	0 10.0225 	-0.154813 	0 10.0112 	-0.0773296 	0 10 	0 	0
8.30133 	-0.114495 	0 8.4287 	-0.091596 	0 8.55659 	-0.0686962 	0 8.68498 	-0.0457958 	0 8.81385 	-0.0228949 	0 8.94315 	0 	0
9.72339 	0.38131 	0 9.5415 	0.555239 	0 9.39671 	0.663648 	0 9.26204 	0.754268 	0 9.21831 	0.780382 	0 8.95345 	1.27613 	0 8.70579 	1.91035 	0 8.48175 	2.72182 	0 8.46726 	2.67121 	0 8.47255 	2.45983 	0 8.5012 	2.35311 	0 8.52501 	2.24426 	0 8.51225 	2.16306 	0 8.42491 	2.14733 	0 8.30218 	2.12553 	0 8.30122 	1.98205 	0 8.28719 	1.83793 	0 8.21187 	1.72563 	0 8.03507 	1.67502 	0 7.86314 	1.62569 	0 7.6833 	1.56752 	0 7.50183 	1.50867 	0 7.42799 	1.4583 	0 7.36152 	1.40762 	0 7.27868 	1.3466 	0 7.22254 	1.32366 	0 7.16621 	1.30061 	0 7.10968 	1.27745 	0 7.07939 	1.25432 	0 7.05302 	1.23114 	0 6.97405 	1.13832 	0 6.88853 	1.05221 	0 6.79894 	0.980279 	0 6.71201 	0.932044 	0 6.62288 	0.883631 	0 6.55095 	0.833742 	0 6.49231 	0.787556 	0 6.44245 	0.743829 	0 6.38865 	0.699069 	0 6.31694 	0.642334 	0 6.31475 	0.640228 	0 6.31318 	0.638394 	0 6.31168 	0.636598 	0 6.31018 	0.6348 	0 6.30862 	0.632952 	0 6.27124 	0.59712 	0 6.23141 	0.56096 	0 6.18911 	0.524467 	0 6.14428 	0.487638 	0 6.10928 	0.45648 	0 6.07583 	0.421235 	0 6.04548 	0.391298 	0 6.01673 	0.364892 	0 5.9941 	0.339995 	0 5.97276 	0.315648 	0 5.95201 	0.289562 	0 5.92923 	0.263266 	0 5.91292 	0.242254 	0 5.90274 	0.223324 	0 5.89109 	0.204331 	0 5.87836 	0.184323 	0 5.86411 	0.164215 	0 5.8553 	0.144716 	0 5.85228 	0.12842 	0 5.848 	0.112096 	0 5.84168 	0.0955335 	0 5.83413 	0.0789287 	0 5.83191 	0.0603084 	0 5.83466 	0.0445491 	0 5.83623 	0.0287896 	0 5.83527 	0.0135797 	0 5.83338 	-0.00172596 	0 5.83707 	-0.0206936 	0 5.84497 	-0.0380555 	0 5.85173 	-0.0553517 	0 5.85592 	-0.0713102 	0 5.85901 	-0.0872438 	0 5.86819 	-0.108534 	0 5.88144 	-0.129894 	0 5.89321 	-0.151184 	0 5.90285 	-0.170414 	0 5.91121 	-0.189576 	0 5.92533 	-0.214954 	0 5.94394 	-0.243684 	0 5.96068 	-0.272277 	0 5.97635 	-0.298333 	0 5.99039 	-0.324242 	0 6.00917 	-0.355817 	0 6.03294 	-0.39669 	0 6.05424 	-0.437325 	0 6.07623 	-0.475551 	0 6.09791 	-0.515723 	0 6.12287 	-0.562084 	0 6.14716 	-0.614308 	0 6.17091 	-0.673744 	0 6.19766 	-0.731996 	0 6.22859 	-0.804963 	0 6.25566 	-0.877403 	0 6.27893 	-0.949316 	0 6.29866 	-1.02237 	0 6.29938 	-1.0249 	0 6.30017 	-1.02805 	0 6.30097 	-1.03125 	0 6.30177 	-1.03445 	0 6.30254 	-1.03757 	0 6.32446 	-1.1313 	0 6.34145 	-1.22307 	0 6.35363 	-1.31292 	0 6.36342 	-1.40843 	0 6.37575 	-1.52846 	0 6.39305 	-1.65365 	0 6.40414 	-1.77678 	0 6.39253 	-1.91772 	2.51063e-20 6.35442 	-2.06627 	5.1369e-20 6.30418 	-2.22034 	7.88859e-20 6.29523 	-2.27442 	1.62999e-20 6.28197 	-2.32512 	-2.36853e-21 6.26424 	-2.37228 	2.5114e-20 6.24586 	-2.41915 	5.3318e-20 6.23051 	-2.45675 	7.66653e-20 6.20465 	-2.54859 	1.73549e-19 6.177 	-2.63991 	2.74307e-19 6.14756 	-2.7307 	3.78916e-19 6.10297 	-2.80849 	2.65147e-19 6.04866 	-2.88543 	6.05594e-20 5.96881 	-3.00471 	4.72122e-20 5.88411 	-3.12183 	3.47333e-20 5.78746 	-3.2195 	6.94197e-21 5.68643 	-3.31524 	-1.98455e-20 5.60038 	-3.39175 	-4.08645e-20 5.59366 	-3.39855 	-4.07036e-20 5.58693 	-3.40534 	-4.05347e-20 5.58014 	-3.41166 	-4.13897e-20 5.57327 	-3.41675 	-4.49339e-20 5.56632 	-3.42189 	-4.85029e-20 5.44679 	-3.51802 	-3.0202e-20 5.32185 	-3.61192 	-1.15178e-20 5.19536 	-3.68943 	-1.65599e-21 5.06939 	-3.7483 	-2.17016e-21 4.91977 	-3.81447 	-1.87096e-21 4.91728 	-3.81562 	-1.14597e-21 4.91479 	-3.81677 	-4.20912e-22 4.91241 	-3.81771 	4.12803e-22 4.91018 	-3.81837 	1.39683e-21 4.90796 	-3.81902 	2.3763e-21 4.78236 	-3.8698 	3.5716e-22 4.65224 	-3.91782 	1.73875e-21 4.52583 	-3.95347 	3.50323e-21 4.40783 	-3.97102 	5.66041e-21 4.31236 	-3.98373 	7.55683e-21 4.28476 	-3.99076 	1.22733e-20 4.25697 	-3.99773 	1.70215e-20 4.23396 	-3.9994 	8.46064e-21 4.21106 	-4.00077 	-7.28426e-22 4.18723 	-4.00213 	-1.02277e-20 4.11094 	-4.01011 	-6.47174e-20 4.03338 	-4.01753 	-1.18808e-19 3.95472 	-4.02422 	-1.70869e-19 3.88818 	-4.01894 	-1.03981e-19 3.82743 	-4.01378 	-4.32973e-20 3.75179 	-4.01628 	2.97941e-21 3.67629 	-4.01597 	3.98364e-20 3.60617 	-4.00473 	3.22486e-20 3.53503 	-3.99304 	2.49229e-20 3.45515 	-3.97959 	1.71173e-20 3.44977 	-3.97896 	1.81309e-20 3.44438 	-3.97832 	1.91448e-20 3.43899 	-3.97769 	2.01591e-20 3.43389 	-3.97656 	2.10111e-20 3.42895 	-3.97526 	2.17939e-20 3.3611 	-3.96469 	1.39365e-20 3.29064 	-3.95111 	7.1992e-21 3.21897 	-3.93682 	4.56477e-22 3.14692 	-3.90999 	6.42895e-21 3.07908 	-3.88389 	1.26331e-20 3.03753 	-3.8745 	3.47355e-20 2.99568 	-3.8637 	5.0086e-20 2.9546 	-3.84561 	2.32522e-20 2.91311 	-3.82729 	-3.52417e-21 2.86843 	-3.80752 	-3.20206e-20 2.84942 	-3.80088 	-3.84161e-20 2.83032 	-3.79419 	-4.48141e-20 2.81113 	-3.78744 	-5.12145e-20 2.79202 	-3.77822 	-5.77035e-20 2.77323 	-3.76853 	-6.41013e-20 2.7194 	-3.74821 	-1.08036e-19 2.66472 	-3.72738 	-1.52094e-19 2.60949 	-3.69755 	-1.46969e-19 2.55458 	-3.66092 	-8.86357e-20 2.50164 	-3.62556 	-3.29166e-20 2.48428 	-3.61679 	2.48854e-21 2.46689 	-3.60776 	3.57022e-20 2.45059 	-3.5955 	3.05169e-20 2.43422 	-3.5832 	2.53707e-20 2.41731 	-3.57049 	2.01192e-20 2.38666 	-3.55199 	5.68537e-20 2.35576 	-3.53329 	9.35048e-20 2.3246 	-3.51438 	1.3007e-19 2.29447 	-3.49061 	1.04137e-19 2.26497 	-3.46683 	7.3118e-20 2.22633 	-3.44106 	4.22932e-20 2.18718 	-3.41494 	1.14325e-20 2.15097 	-3.38168 	-4.31774e-21 2.11441 	-3.34815 	-2.00801e-20 2.07509 	-3.31218 	-3.69016e-20 2.07264 	-3.31036 	-3.53664e-20 2.07019 	-3.30853 	-3.38325e-20 2.06773 	-3.3067 	-3.22998e-20 2.06541 	-3.30451 	-3.6761e-20 2.06311 	-3.30231 	-4.15726e-20 2.02621 	-3.27004 	-1.52715e-19 1.98979 	-3.23633 	-2.43618e-19 1.95369 	-3.20129 	-3.01361e-19 1.92071 	-3.16097 	-1.94355e-19 1.88823 	-3.12133 	-8.9509e-20 1.87782 	-3.11019 	-7.64443e-20 1.86739 	-3.09901 	-6.33727e-20 1.85851 	-3.08644 	-5.1296e-20 1.84992 	-3.0736 	-3.9406e-20 1.84122 	-3.06061 	-2.73781e-20 1.82044 	-3.03746 	-4.58104e-21 1.79956 	-3.01422 	1.82374e-20 1.77899 	-2.99044 	3.55286e-20 1.76089 	-2.96393 	1.93984e-20 1.74292 	-2.93765 	3.43756e-21 1.72695 	-2.91618 	-1.40597e-20 1.71093 	-2.89467 	-3.15327e-20 1.69751 	-2.87153 	-8.11274e-21 1.68502 	-2.84785 	2.95168e-20 1.67245 	-2.82397 	6.74796e-20 1.66208 	-2.81006 	3.97827e-20 1.65169 	-2.79612 	1.21346e-20 1.64175 	-2.78184 	1.12215e-21 1.63322 	-2.76653 	4.09413e-20 1.62472 	-2.75127 	8.064e-20 1.60841 	-2.72327 	2.41961e-19 1.5921 	-2.69528 	4.03271e-19 1.57873 	-2.66622 	3.4928e-19 1.56721 	-2.6366 	1.65823e-19 1.55593 	-2.60731 	-1.69078e-20 1.55052 	-2.5984 	-3.59736e-20 1.54511 	-2.58948 	-5.50384e-20 1.54019 	-2.58035 	-5.82647e-20 1.53607 	-2.57085 	-3.55341e-20 1.53196 	-2.56136 	-1.28054e-20 1.51906 	-2.5317 	-1.44996e-20 1.50629 	-2.50215 	-1.62388e-20 1.49609 	-2.47231 	-5.94886e-21 1.48868 	-2.44222 	1.70016e-20 1.48177 	-2.41325 	3.92194e-20 1.47752 	-2.40429 	4.66553e-20 1.47328 	-2.39534 	5.40899e-20 1.46978 	-2.38622 	5.70655e-20 1.46692 	-2.37696 	5.62066e-20 1.46408 	-2.3677 	5.53381e-20 1.45656 	-2.34173 	3.37937e-20 1.44923 	-2.31592 	1.22098e-20 1.44356 	-2.29035 	-1.53223e-21 1.44116 	-2.26508 	1.09551e-21 1.43919 	-2.24126 	3.5961e-21 1.43429 	-2.2271 	5.40306e-20 1.42943 	-2.21298 	1.04566e-19 1.42624 	-2.19885 	9.00639e-20 1.42374 	-2.18476 	4.98517e-20 1.4213 	-2.17059 	9.28514e-21 1.41893 	-2.15333 	-4.28429e-20 1.41671 	-2.13618 	-9.48694e-20 1.41516 	-2.11945 	-1.30412e-19 1.41722 	-2.10468 	-6.00338e-20 1.41937 	-2.09075 	7.52096e-21 1.41373 	-2.06625 	4.93405e-21 1.40828 	-2.04191 	2.33556e-21 1.40779 	-2.02006 	-1.81924e-20 1.40806 	-1.99869 	-4.06412e-20 1.40864 	-1.97697 	-6.3813e-20 1.40856 	-1.97175 	-6.51469e-20 1.4085 	-1.96655 	-6.6489e-20 1.40858 	-1.96145 	-6.78033e-20 1.40961 	-1.95706 	-6.88378e-20 1.41064 	-1.95277 	-6.98635e-20 1.40689 	-1.92388 	-2.84392e-19 1.40349 	-1.89531 	-5.0079e-19 1.40404 	-1.86941 	-4.65415e-19 1.40869 	-1.84618 	-1.89915e-19 1.41348 	-1.82531 	6.51442e-20 1.41273 	-1.81926 	9.04192e-20 1.412 	-1.81322 	1.15731e-19 1.41237 	-1.80792 	1.03546e-19 1.41279 	-1.80266 	9.03152e-20 1.41323 	-1.79736 	7.69509e-20 1.41467 	-1.77914 	6.05819e-20 1.41637 	-1.76114 	4.42835e-20 1.41839 	-1.74339 	2.84006e-20 1.42325 	-1.72782 	3.26941e-20 1.42806 	-1.71354 	3.6816e-20 1.42822 	-1.69529 	1.79365e-20 1.42873 	-1.67731 	9.9077e-22 1.43181 	-1.66122 	2.01036e-20 1.43514 	-1.64532 	3.92592e-20 1.43889 	-1.62887 	5.93888e-20 1.43993 	-1.6246 	6.07771e-20 1.441 	-1.62034 	6.21752e-20 1.44208 	-1.61609 	6.3583e-20 1.44364 	-1.61231 	6.50272e-20 1.44525 	-1.60867 	6.64576e-20 1.44739 	-1.58742 	1.65287e-19 1.45043 	-1.56671 	2.5249e-19 1.4557 	-1.5475 	2.61199e-19 1.463 	-1.53014 	1.48294e-19 1.47013 	-1.5145 	4.39371e-20 1.47153 	-1.50388 	8.26361e-20 1.47327 	-1.49355 	1.08537e-19 1.476 	-1.48412 	8.58633e-20 1.47884 	-1.47477 	6.33495e-20 1.4819 	-1.46512 	4.00805e-20 1.48462 	-1.45697 	1.15094e-20 1.48743 	-1.44888 	-1.68961e-20 1.49033 	-1.44086 	-4.51345e-20 1.49386 	-1.43362 	-4.26065e-21 1.49752 	-1.42693 	5.79427e-20 1.50139 	-1.40842 	1.59282e-19 1.50559 	-1.39015 	2.61498e-19 1.51164 	-1.37354 	2.76588e-19 1.51974 	-1.35857 	2.04803e-19 1.52762 	-1.34494 	1.37591e-19 1.52989 	-1.33586 	1.80777e-19 1.53252 	-1.32719 	1.96014e-19 1.53568 	-1.31916 	1.63418e-19 1.53894 	-1.3112 	1.30879e-19 1.54245 	-1.30292 	9.6829e-20 1.5457 	-1.29564 	7.63315e-20 1.54904 	-1.28841 	5.58381e-20 1.55246 	-1.28124 	3.5349e-20 1.55623 	-1.27466 	3.14959e-20 1.56014 	-1.26871 	3.90486e-20 1.56516 	-1.25245 	-3.978e-20 1.57051 	-1.2364 	-1.19111e-19 1.57799 	-1.22198 	-1.30185e-19 1.58644 	-1.20903 	-6.34644e-20 1.5947 	-1.1971 	-6.50723e-22 1.59932 	-1.1842 	-3.75633e-20 1.6045 	-1.17219 	-4.60608e-20 1.6102 	-1.161 	-2.86379e-20 1.61612 	-1.14995 	-1.14523e-20 1.6228 	-1.13804 	7.03847e-21 1.62408 	-1.13591 	1.35925e-20 1.62537 	-1.13378 	2.01311e-20 1.62667 	-1.13166 	2.66541e-20 1.62801 	-1.12967 	2.09674e-20 1.62938 	-1.12788 	-2.28434e-21 1.63574 	-1.1139 	-9.60743e-20 1.64317 	-1.10055 	-1.55353e-19 1.6509 	-1.08741 	-2.14219e-19 1.6592 	-1.0756 	-1.72859e-19 1.66749 	-1.06518 	-8.0114e-20 1.67387 	-1.05109 	-1.12277e-19 1.68055 	-1.0372 	-1.44599e-19 1.68782 	-1.02514 	-1.56357e-19 1.69621 	-1.01379 	-1.54653e-19 1.70505 	-1.00345 	-1.44515e-19 1.70938 	-0.994966 	-2.37227e-19 1.71392 	-0.987325 	-2.36667e-19 1.71861 	-0.980017 	-2.03712e-19 1.72341 	-0.972773 	-1.70961e-19 1.72871 	-0.965002 	-1.35737e-19 1.7317 	-0.960856 	-1.26038e-19 1.73472 	-0.956732 	-1.16366e-19 1.73777 	-0.952631 	-1.06721e-19 1.74086 	-0.948688 	-1.00398e-19 1.74393 	-0.945336 	-1.06513e-19 1.75071 	-0.933047 	-1.35548e-19 1.75881 	-0.921594 	-1.40902e-19 1.76718 	-0.9103 	-1.46189e-19 1.77575 	-0.900287 	-1.24305e-19 1.7842 	-0.891404 	-8.81225e-20 1.79138 	-0.879261 	-1.15979e-19 1.79883 	-0.867266 	-1.44018e-19 1.80648 	-0.856781 	-1.3852e-19 1.81541 	-0.847573 	-9.50692e-20 1.82428 	-0.838799 	-5.29634e-20 1.83203 	-0.826933 	-1.57381e-19 1.83979 	-0.816605 	-1.43801e-19 1.84773 	-0.806728 	-1.03456e-19 1.85591 	-0.796977 	-6.35363e-20 1.86438 	-0.787824 	2.54282e-22 1.86576 	-0.785893 	2.71605e-22 1.86709 	-0.784245 	2.6476e-22 1.86842 	-0.782601 	2.579e-22 1.86975 	-0.78096 	2.51026e-22 1.87113 	-0.779281 	2.43959e-22 1.87787 	-0.771262 	1.35945e-20 1.88476 	-0.763326 	2.6783e-20 1.89182 	-0.755473 	3.981e-20 1.89903 	-0.747701 	5.26759e-20 1.90574 	-0.741627 	8.09142e-21 1.91313 	-0.731309 	-6.42901e-20 1.9214 	-0.721658 	-1.0042e-19 1.93016 	-0.712346 	-1.21656e-19 1.9386 	-0.704491 	-8.27197e-20 1.94686 	-0.697365 	-2.39028e-20 1.95468 	-0.687312 	-1.38703e-20 1.96274 	-0.677368 	-3.8504e-21 1.97077 	-0.668881 	-2.21724e-21 1.97922 	-0.661669 	-8.87238e-21 1.98769 	-0.654682 	-1.54347e-20 1.99592 	-0.644899 	6.1147e-20 2.00395 	-0.636009 	9.78204e-20 2.01165 	-0.628192 	8.50131e-20 2.01963 	-0.620541 	6.58847e-20 2.02827 	-0.613697 	5.979e-23 2.03651 	-0.604699 	-4.38667e-21 2.04415 	-0.597125 	-2.39113e-20 2.05196 	-0.589627 	-4.34118e-20 2.05995 	-0.582207 	-6.28879e-20 2.06857 	-0.574485 	-8.32157e-20 2.06877 	-0.57428 	-8.43111e-20 2.06895 	-0.574103 	-8.44096e-20 2.06914 	-0.573927 	-8.45082e-20 2.06932 	-0.573751 	-8.46068e-20 2.0695 	-0.573574 	-8.47059e-20 2.07714 	-0.566279 	-9.71244e-20 2.08495 	-0.559054 	-1.09488e-19 2.09293 	-0.5519 	-1.21795e-19 2.10108 	-0.544816 	-1.34048e-19 2.10835 	-0.539172 	-9.23727e-20 2.11596 	-0.531186 	-7.66861e-20 2.12409 	-0.523992 	-4.75469e-20 2.13239 	-0.516868 	-1.84472e-20 2.14033 	-0.510484 	1.07146e-22 2.14739 	-0.505394 	1.78366e-22 2.15521 	-0.497623 	6.76998e-20 2.16325 	-0.490049 	1.26086e-19 2.17166 	-0.483133 	1.42823e-19 2.17865 	-0.478082 	7.3522e-20 2.18568 	-0.47314 	3.98366e-21 2.1937 	-0.465622 	-6.60497e-20 2.20189 	-0.458167 	-1.36098e-19 2.2093 	-0.452083 	-1.35381e-19 2.2162 	-0.447208 	-6.74545e-20 2.22317 	-0.442414 	-2.59629e-23 2.23135 	-0.435149 	6.48503e-24 2.23945 	-0.428183 	3.10308e-23 2.24615 	-0.422777 	7.32e-24 2.25296 	-0.417859 	0 2.25982 	-0.413212 	0 2.26813 	-0.406198 	0 2.27533 	-0.400367 	0 2.28203 	-0.395156 	0 2.28885 	-0.390015 	-7.99839e-22 2.29558 	-0.385514 	-1.59805e-20 2.30367 	-0.379005 	-1.45375e-21 2.31022 	-0.373951 	-1.09036e-20 2.31688 	-0.368932 	-2.03426e-20 2.32367 	-0.363948 	-2.97707e-20 2.3304 	-0.359291 	-5.35715e-20 2.33667 	-0.354458 	-3.69905e-20 2.34223 	-0.350278 	-3.84493e-20 2.34788 	-0.346121 	-3.98877e-20 2.35362 	-0.341988 	-4.13058e-20 2.36037 	-0.337225 	-4.29259e-20 2.36115 	-0.336689 	-4.34584e-20 2.36193 	-0.336155 	-4.39898e-20 2.36272 	-0.33562 	-4.45203e-20 2.3635 	-0.335086 	-4.50497e-20 2.36418 	-0.334635 	-4.29466e-20 2.37055 	-0.329896 	-4.05037e-20 2.37701 	-0.325227 	-3.89661e-20 2.38357 	-0.320587 	-3.74549e-20 2.39025 	-0.315976 	-3.59699e-20 2.39594 	-0.312178 	-3.87325e-20 2.40255 	-0.307307 	-7.2603e-20 2.4089 	-0.302822 	-7.68915e-20 2.41536 	-0.298364 	-8.11047e-20 2.42192 	-0.293933 	-8.5243e-20 2.42652 	-0.29091 	-3.53659e-20 2.43344 	-0.285965 	-9.36557e-20 2.43966 	-0.281663 	-1.05603e-19 2.44599 	-0.277385 	-1.17493e-19 2.45195 	-0.273427 	-1.17315e-19 2.4559 	-0.270797 	-6.44775e-20 2.46283 	-0.26605 	-1.15021e-19 2.46927 	-0.261706 	-1.35105e-19 2.47545 	-0.257605 	-1.3743e-19 2.48037 	-0.254318 	-1.15972e-19 2.48408 	-0.2518 	-7.2241e-20 2.49098 	-0.247265 	-1.14911e-19 2.4977 	-0.242904 	-1.4447e-19 2.50371 	-0.238978 	-1.38659e-19 2.5076 	-0.236289 	-9.50087e-20 2.51106 	-0.233881 	-4.3276e-20 2.51791 	-0.229553 	4.3287e-20 2.52487 	-0.225245 	1.29865e-19 2.53048 	-0.221612 	1.30846e-19 2.53363 	-0.219298 	5.3444e-20 2.53684 	-0.216998 	-2.38456e-20 2.54362 	-0.212873 	-1.47537e-20 2.55051 	-0.208765 	-5.67151e-21 2.55558 	-0.205509 	8.67687e-21 2.55847 	-0.203302 	2.60034e-20 2.56141 	-0.201107 	4.33074e-20 2.56811 	-0.19718 	-4.34309e-20 2.57492 	-0.193269 	-1.30181e-19 2.57949 	-0.190361 	-1.36129e-19 2.58212 	-0.188258 	-6.58747e-20 2.58479 	-0.186165 	4.29105e-21 2.59141 	-0.182433 	5.14492e-21 2.59811 	-0.178714 	5.97863e-21 2.60224 	-0.176125 	-1.06144e-20 2.6046 	-0.174124 	-4.44906e-20 2.607 	-0.172132 	-7.83449e-20 2.61351 	-0.168588 	-4.28697e-20 2.61993 	-0.165131 	-9.64735e-21 2.62364 	-0.162806 	-1.04175e-20 2.62591 	-0.160857 	-2.6e-20 2.62805 	-0.158963 	-4.3405e-20 2.63445 	-0.155603 	-2.60569e-20 2.64015 	-0.152548 	-1.33567e-20 2.6437 	-0.150346 	-1.40513e-20 2.64609 	-0.148416 	-2.61238e-20 2.64796 	-0.146617 	-4.3485e-20 2.65423 	-0.143436 	-1.65236e-19 2.65925 	-0.140739 	-2.31696e-19 2.66263 	-0.138657 	-2.27324e-19 2.66514 	-0.13676 	-1.65063e-19 2.66674 	-0.135053 	-4.3425e-20 2.67289 	-0.132046 	-2.60124e-20 2.67725 	-0.129668 	-8.62952e-21 2.68046 	-0.127701 	8.73402e-21 2.68309 	-0.125849 	2.33867e-20 2.68444 	-0.124232 	3.23245e-20 2.69045 	-0.121393 	9.34878e-20 2.69419 	-0.119298 	1.07118e-19 2.69723 	-0.117443 	1.05563e-19 2.69998 	-0.115645 	9.42072e-20 2.70107 	-0.114116 	3.36333e-20 2.70694 	-0.11144 	2.51554e-20 2.71009 	-0.109595 	1.67013e-20 2.71296 	-0.107848 	8.2458e-21 2.71583 	-0.106112 	0 2.71667 	-0.104667 	0 2.72232 	-0.10217 	4.64785e-22 2.72499 	-0.100524 	1.82993e-20 2.7277 	-0.0988803 	3.61258e-20 2.73045 	-0.0972404 	5.39443e-20 2.73127 	-0.095849 	7.16903e-20 2.73642 	-0.0935982 	1.76041e-19 2.73892 	-0.0920518 	1.73656e-19 2.74147 	-0.0905082 	1.71318e-19 2.74406 	-0.0889676 	1.69028e-19 2.74491 	-0.087628 	7.36127e-20 2.74957 	-0.0855978 	5.65503e-20 2.75192 	-0.0841475 	3.95295e-20 2.75431 	-0.0826998 	2.25011e-20 2.75674 	-0.0812545 	5.46494e-21 2.75761 	-0.0799709 	1.15824e-20 2.76183 	-0.0781385 	-8.84158e-24 2.76402 	-0.0767804 	-3.43878e-23 2.76626 	-0.0754244 	-5.99244e-23 2.76853 	-0.0740707 	-8.54513e-23 2.76943 	-0.072846 	4.89458e-21 2.77322 	-0.0711909 	-3.89722e-20 2.77527 	-0.069921 	-3.77725e-20 2.77735 	-0.068653 	-3.65987e-20 2.77947 	-0.0673868 	-3.54508e-20 2.78038 	-0.066223 	-4.20446e-21 2.78379 	-0.064727 	8.9939e-23 2.78569 	-0.0635414 	6.47582e-23 2.78763 	-0.0623574 	3.95682e-23 2.78959 	-0.061175 	1.4369e-23 2.79052 	-0.0600731 	0 2.79357 	-0.0587197 	1.53159e-20 2.79533 	-0.0576145 	4.16464e-20 2.79713 	-0.0565107 	6.79687e-20 2.79895 	-0.0554083 	9.42828e-20 2.79988 	-0.0543686 	1.14312e-19 2.8026 	-0.0531432 	1.60159e-19 2.80423 	-0.0521147 	1.59174e-19 2.80588 	-0.0510873 	1.58216e-19 2.80757 	-0.050061 	1.57284e-19 2.80849 	-0.0490834 	1.11608e-19 2.81091 	-0.0479729 	9.02616e-20 2.81241 	-0.0470172 	5.57606e-20 2.81394 	-0.0460625 	2.12544e-20 2.8155 	-0.0451088 	-1.32568e-20 2.8164 	-0.0441923 	-4.55306e-20 2.81855 	-0.0431852 	-7.31031e-20 2.81993 	-0.0422987 	-7.20025e-20 2.82133 	-0.041413 	-7.09336e-20 2.82276 	-0.0405281 	-6.98966e-20 2.82364 	-0.0396717 	-3.94978e-20 2.82554 	-0.0387575 	-4.00571e-20 2.8268 	-0.0379366 	-2.2268e-20 2.82809 	-0.0371164 	-4.49585e-21 2.8294 	-0.0362969 	1.32595e-20 2.83025 	-0.0354988 	4.31671e-20 2.83193 	-0.0346684 	5.45652e-20 2.83308 	-0.0339096 	7.20335e-20 2.83425 	-0.0331514 	8.94942e-20 2.83545 	-0.0323937 	1.06947e-19 2.83627 	-0.0316522 	1.25638e-19 2.83774 	-0.0308975 	1.34015e-19 2.83879 	-0.0301974 	1.24842e-19 2.83986 	-0.0294978 	1.15689e-19 2.84094 	-0.0287986 	1.06556e-19 2.84172 	-0.0281115 	8.39974e-20 2.84302 	-0.0274252 	5.92408e-20 2.84397 	-0.0267805 	3.34552e-20 2.84493 	-0.0261362 	7.66781e-21 2.84592 	-0.0254922 	-1.81213e-20 2.84665 	-0.0248573 	-4.21871e-20 2.84779 	-0.0242331 	-3.90228e-20 2.84864 	-0.0236406 	-2.12986e-20 2.84952 	-0.0230483 	-3.59904e-21 2.85041 	-0.0224564 	1.40759e-20 2.85108 	-0.0218714 	4.53969e-20 2.85209 	-0.0213035 	7.18961e-20 2.85285 	-0.02076 	7.96997e-20 2.85364 	-0.0202168 	8.75445e-20 2.85444 	-0.0196739 	9.54304e-20 2.85505 	-0.0191363 	8.66302e-20 2.85594 	-0.0186196 	7.49683e-20 2.85663 	-0.0181223 	6.64036e-20 2.85733 	-0.0176251 	5.78349e-20 2.85804 	-0.0171282 	4.92623e-20 2.85859 	-0.0166354 	4.06884e-20 2.85938 	-0.0161656 	3.27031e-20 2.85999 	-0.0157115 	3.29953e-20 2.86061 	-0.0152575 	3.3266e-20 2.86125 	-0.0148037 	3.35152e-20 2.86173 	-0.0143534 	4.25413e