# vtk DataFile Version 2.0
track0
ASCII
DATASET POLYDATA
POINTS 12278 float
-0.0205 0.001 1e-05
-0.02052 0.000999216 1e-05
-0.02054 0.000998592 1e-05
-0.02056 0.000998126 1e-05
-0.02058 0.000997818 1e-05
-0.0206 0.000997665 1e-05
-0.0205 0.00367778 1e-05
-0.02052 0.00367703 1e-05
-0.02054 0.00367643 1e-05
-0.02056 0.00367599 1e-05
-0.02058 0.00367569 1e-05
-0.0206 0.00367554 1e-05
-0.0205 0.00635556 1e-05
-0.02052 0.00635527 1e-05
-0.02054 0.00635505 1e-05
-0.02056 0.00635488 1e-05
-0.02058 0.00635476 1e-05
-0.0206 0.00635471 1e-05
-0.0205 0.00903333 1e-05
-0.02052 0.00903311 1e-05
-0.02054 0.00903293 1e-05
-0.02056 0.0090328 1e-05
-0.02058 0.00903271 1e-05
-0.0206 0.00903266 1e-05
-0.0205 0.0117111 1e-05
-0.02052 0.0117111 1e-05
-0.02054 0.011711 1e-05
-0.02056 0.011711 1e-05
-0.02058 0.011711 1e-05
-0.0206 0.011711 1e-05
-0.0205 0.0143889 1e-05
-0.02052 0.014389 1e-05
-0.02054 0.014389 1e-05
-0.02056 0.0143891 1e-05
-0.02058 0.0143891 1e-05
-0.0206 0.0143891 1e-05
-0.0205 0.0170667 1e-05
-0.02052 0.017067 1e-05
-0.02054 0.0170672 1e-05
-0.02056 0.0170674 1e-05
-0.02058 0.0170675 1e-05
-0.0206 0.0170676 1e-05
-0.0205 0.0197444 1e-05
-0.02052 0.019745 1e-05
-0.02054 0.0197454 1e-05
-0.02056 0.0197457 1e-05
-0.02058 0.0197459 1e-05
-0.0206 0.019746 1e-05
-0.0205 0.0224222 1e-05
-0.02052 0.022423 1e-05
-0.02054 0.0224236 1e-05
-0.02056 0.0224241 1e-05
-0.02058 0.0224244 1e-05
-0.0206 0.0224245 1e-05
-0.0205 0.0251 1e-05
-0.02052 0.0251003 1e-05
-0.02054 0.0251005 1e-05
-0.02056 0.0251007 1e-05
-0.02058 0.0251008 1e-05
-0.0206 0.0251008 1e-05
-0.0205 0.001 1e-05
-0.0203632 0.00100536 1e-05
-0.0202266 0.00101331 1e-05
-0.0200901 0.00102296 1e-05
-0.0200427 0.00102682 1e-05
-0.0198376 0.00104418 1e-05
-0.0196338 0.00107322 1e-05
-0.0194327 0.00111734 1e-05
-0.0192368 0.00118024 1e-05
-0.0190172 0.00124951 1e-05
-0.0189002 0.00128348 1e-05
-0.0187827 0.00131598 1e-05
-0.0186649 0.001347 1e-05
-0.0185469 0.001377 1e-05
-0.0183807 0.00141936 1e-05
-0.0182041 0.00146458 1e-05
-0.0180267 0.00150692 1e-05
-0.0178487 0.0015464 1e-05
-0.0176703 0.00158389 1e-05
-0.0174976 0.00161991 1e-05
-0.0172846 0.00166394 1e-05
-0.0170715 0.00170741 1e-05
-0.0168583 0.00175029 1e-05
-0.0166449 0.00179219 1e-05
-0.0163945 0.00184007 1e-05
-0.0163234 0.00185324 1e-05
-0.0162522 0.00186629 1e-05
-0.016181 0.00187921 1e-05
-0.0161097 0.00189201 1e-05
-0.0160387 0.0019046 1e-05
-0.0157586 0.0019535 1e-05
-0.0154779 0.00199931 1e-05
-0.0151968 0.00204225 1e-05
-0.0149154 0.00208283 1e-05
-0.0146381 0.00212134 1e-05
-0.0143838 0.00215527 1e-05
-0.0141293 0.00218766 1e-05
-0.0138747 0.00221855 1e-05
-0.0136198 0.00224797 1e-05
-0.0132934 0.00228369 1e-05
-0.0132791 0.00228515 1e-05
-0.0132648 0.0022866 1e-05
-0.0132504 0.00228805 1e-05
-0.0132361 0.0022895 1e-05
-0.0132214 0.00229098 1e-05
-0.0129776 0.00231543 1e-05
-0.0127337 0.00233865 1e-05
-0.0124897 0.00236061 1e-05
-0.0122456 0.00238129 1e-05
-0.0120025 0.00240058 1e-05
-0.0117547 0.00241909 1e-05
-0.0115067 0.00243627 1e-05
-0.0112587 0.00245231 1e-05
-0.0110106 0.00246734 1e-05
-0.0107632 0.00248136 1e-05
-0.0105252 0.00249391 1e-05
-0.0102872 0.00250547 1e-05
-0.0100491 0.00251602 1e-05
-0.00981105 0.00252575 1e-05
-0.00957337 0.00253471 1e-05
-0.00934491 0.00254261 1e-05
-0.00911643 0.00254974 1e-05
-0.00888792 0.0025561 1e-05
-0.0086594 0.00256171 1e-05
-0.00843108 0.00256668 1e-05
-0.00821175 0.00257084 1e-05
-0.00799241 0.00257439 1e-05
-0.00777306 0.00257731 1e-05
-0.0075537 0.00257952 1e-05
-0.00733443 0.00258114 1e-05
-0.00712387 0.00258212 1e-05
-0.0069133 0.00258255 1e-05
-0.00670273 0.00258243 1e-05
-0.00649216 0.00258162 1e-05
-0.0062816 0.00258018 1e-05
-0.00607944 0.00257819 1e-05
-0.0058773 0.00257565 1e-05
-0.00567516 0.00257256 1e-05
-0.00547303 0.00256874 1e-05
-0.00527083 0.00256419 1e-05
-0.00507675 0.00255912 1e-05
-0.00488269 0.00255343 1e-05
-0.00468865 0.00254711 1e-05
-0.00449464 0.00253997 1e-05
-0.00430044 0.00253191 1e-05
-0.00411412 0.00252329 1e-05
-0.00392784 0.00251388 1e-05
-0.00374159 0.00250369 1e-05
-0.0035554 0.00249255 1e-05
-0.00336883 0.00248016 1e-05
-0.00318995 0.00246712 1e-05
-0.00301115 0.002453 1e-05
-0.00283245 0.00243775 1e-05
-0.00265386 0.00242121 1e-05
-0.00247443 0.00240314 1e-05
-0.0023027 0.00238426 1e-05
-0.00213114 0.00236384 1e-05
-0.00195982 0.00234154 1e-05
-0.00178875 0.00231738 1e-05
-0.00161577 0.00229105 1e-05
-0.00161568 0.00229104 1e-05
-0.00161558 0.00229102 1e-05
-0.00161549 0.00229101 1e-05
-0.00161539 0.00229099 1e-05
-0.0016153 0.00229098 1e-05
-0.00145052 0.00226407 1e-05
-0.00128615 0.00223481 1e-05
-0.0011222 0.00220326 1e-05
-0.000958697 0.00216947 1e-05
-0.000791418 0.00213236 1e-05
-0.000633135 0.00209425 1e-05
-0.000475556 0.00205332 1e-05
-0.000318719 0.00200964 1e-05
-0.000162835 0.00196267 1e-05
0 0.00190951 1e-05
3.73382e-05 0.00189631 1e-05
7.45763e-05 0.00188283 1e-05
0.000111716 0.00186909 1e-05
0.000148758 0.00185508 1e-05
0.000179067 0.00184338 1e-05
0.000248931 0.00181594 1e-05
0.000318384 0.00178747 1e-05
0.000387412 0.00175799 1e-05
0.000456 0.00172751 1e-05
0.000528387 0.00169413 1e-05
0.000634886 0.00164315 1e-05
0.000740278 0.00158991 1e-05
0.00084451 0.00153445 1e-05
0.00094762 0.00147692 1e-05
0.00101986 0.00143468 1e-05
0.00102807 0.00142973 1e-05
0.00103626 0.00142475 1e-05
0.00104445 0.00141977 1e-05
0.00105262 0.00141476 1e-05
0.00106088 0.00140969 1e-05
0.00116821 0.0013435 1e-05
0.00127404 0.00127494 1e-05
0.00137827 0.00120398 1e-05
0.00148099 0.00113085 1e-05
0.00159666 0.00104511 1e-05
0.00159684 0.00104498 1e-05
0.00159701 0.00104484 1e-05
0.00159718 0.00104471 1e-05
0.00159735 0.00104458 1e-05
0.00159752 0.00104444 1e-05
0.00169217 0.00097088 1e-05
0.00178543 0.000895549 1e-05
0.00187721 0.000818421 1e-05
0.00196757 0.000739638 1e-05
0.00203795 0.000676367 1e-05
0.00205803 0.000657868 1e-05
0.00207802 0.000639281 1e-05
0.00209793 0.000620603 1e-05
0.00211778 0.000601863 1e-05
0.00213833 0.000582339 1e-05
0.00219145 0.00053153 1e-05
0.00224408 0.000480204 1e-05
0.00229619 0.000428354 1e-05
0.00234776 0.000375973 1e-05
0.00239405 0.000328255 1e-05
0.00245191 0.000267782 1e-05
0.00250913 0.00020671 1e-05
0.00256573 0.000145055 1e-05
0.00262181 8.29326e-05 1e-05
0.00268334 1.35948e-05 1e-05
0.0026857 1.08758e-05 1e-05
0.00268807 8.15585e-06 1e-05
0.00269043 5.43489e-06 1e-05
0.00269279 2.71292e-06 1e-05
0.00269515 0 1e-05
0.00275904 -7.37367e-05 1e-05
0.00282232 -0.000148005 1e-05
0.00288496 -0.000222813 1e-05
0.00294694 -0.000298173 1e-05
0.00300401 -0.000368654 1e-05
0.00304972 -0.000425948 1e-05
0.00309513 -0.000483488 1e-05
0.00314023 -0.00054127 1e-05
0.00318507 -0.000599247 1e-05
0.00323259 -0.000661239 1e-05
0.00325062 -0.00068501 1e-05
0.00326861 -0.00070882 1e-05
0.00328654 -0.000732671 1e-05
0.00330441 -0.000756562 1e-05
0.00332195 -0.000780089 1e-05
0.00339009 -0.000871877 1e-05
0.00345763 -0.000964107 1e-05
0.00352455 -0.00105679 1e-05
0.00359093 -0.00114986 1e-05
0.00365379 -0.00123896 1e-05
0.00368025 -0.00127686 1e-05
0.00370664 -0.00131482 1e-05
0.00373295 -0.00135284 1e-05
0.00375921 -0.00139088 1e-05
0.00378611 -0.00142997 1e-05
0.00383008 -0.00149407 1e-05
0.00387384 -0.00155831 1e-05
0.00391737 -0.00162271 1e-05
0.00396069 -0.00168726 1e-05
0.00400283 -0.00175044 1e-05
0.00407105 -0.00185328 1e-05
0.00413885 -0.00195641 1e-05
0.00420623 -0.00205981 1e-05
0.00427332 -0.0021634 1e-05
0.00434393 -0.00227309 1e-05
0.00434997 -0.00228253 1e-05
0.004356 -0.00229198 1e-05
0.00436203 -0.00230142 1e-05
0.00436806 -0.00231087 1e-05
0.00437406 -0.0023203 1e-05
0.00445491 -0.00244725 1e-05
0.00453531 -0.00257449 1e-05
0.00461531 -0.00270197 1e-05
0.00469495 -0.00282968 1e-05
0.00477283 -0.00295498 1e-05
0.00479948 -0.00299801 1e-05
0.00482611 -0.00304106 1e-05
0.00485271 -0.00308413 1e-05
0.0048793 -0.0031272 1e-05
0.00490609 -0.00317059 1e-05
0.00496672 -0.0032688 1e-05
0.0050272 -0.0033671 1e-05
0.00508752 -0.00346549 1e-05
0.00514772 -0.00356396 1e-05
0.00520736 -0.00366161 1e-05
0.00526041 -0.00374852 1e-05
0.00531343 -0.00383547 1e-05
0.0053664 -0.00392243 1e-05
0.00541939 -0.00400938 1e-05
0.00547262 -0.00409659 1e-05
0.00551559 -0.0041669 1e-05
0.00555853 -0.00423722 1e-05
0.00560143 -0.00430757 1e-05
0.00564432 -0.00437793 1e-05
0.00568713 -0.00444811 1e-05
0.00575842 -0.00456486 1e-05
0.00582975 -0.00468158 1e-05
0.00590113 -0.00479827 1e-05
0.00597264 -0.00491488 1e-05
0.00604356 -0.00503005 1e-05
0.00607981 -0.00508869 1e-05
0.00611607 -0.00514733 1e-05
0.00615234 -0.00520596 1e-05
0.00618863 -0.00526458 1e-05
0.00622503 -0.00532326 1e-05
0.00630381 -0.00545002 1e-05
0.00638278 -0.00557667 1e-05
0.00646195 -0.0057032 1e-05
0.00654139 -0.00582956 1e-05
0.00661893 -0.00595209 1e-05
0.00666283 -0.00602101 1e-05
0.00670678 -0.0060899 1e-05
0.00675079 -0.00615876 1e-05
0.00679488 -0.00622756 1e-05
0.00683935 -0.00629671 1e-05
0.00691124 -0.00640812 1e-05
0.00698337 -0.00651936 1e-05
0.00705577 -0.00663043 1e-05
0.00712846 -0.00674131 1e-05
0.00719878 -0.00684778 1e-05
0.00726947 -0.00695403 1e-05
0.00734038 -0.00706013 1e-05
0.00741152 -0.00716609 1e-05
0.00748297 -0.00727183 1e-05
0.00755595 -0.00737909 1e-05
0.00760138 -0.00744539 1e-05
0.00764695 -0.0075116 1e-05
0.00769264 -0.00757773 1e-05
0.00773847 -0.00764376 1e-05
0.00778313 -0.00770779 1e-05
0.00790091 -0.00787576 1e-05
0.00801946 -0.00804319 1e-05
0.00813878 -0.00821007 1e-05
0.0082591 -0.00837623 1e-05
0.00837203 -0.00853013 1e-05
0.00837973 -0.00854048 1e-05
0.00838743 -0.00855083 1e-05
0.00839514 -0.00856118 1e-05
0.00840285 -0.00857152 1e-05
0.00841058 -0.00858189 1e-05
0.00852157 -0.00873054 1e-05
0.00863338 -0.00887857 1e-05
0.00874603 -0.00902596 1e-05
0.00885954 -0.00917268 1e-05
0.00896551 -0.00930779 1e-05
0.00903012 -0.00938909 1e-05
0.00909498 -0.00947019 1e-05
0.00916012 -0.00955108 1e-05
0.00922555 -0.00963171 1e-05
0.00929316 -0.00971439 1e-05
0.00934725 -0.00978 1e-05
0.00940153 -0.00984545 1e-05
0.00945601 -0.00991074 1e-05
0.00951069 -0.00997586 1e-05
0.0095636 -0.0100385 1e-05
[...]
POINT_DATA 12278
 FIELD attributes 2
p 1 12278 float
177013 177095 177168 177231 177285 177330
108947 108965 108981 108995 109008 109018
87753.5 87763.1 87772.4 87781.6 87790.5 87799
79935.8 79942.1 79948.3 79954.4 79960.5 79966.5
77144.9 77154.1 77163.3 77172.5 77181.8 77191
77562.3 77575.8 77589.4 77603 77616.5 77630.1
81095.4 81107.9 81120.1 81132.2 81144.1 81155.9
90921.9 90941.6 90960.7 90979 90996.6 91013.4
117354 117387 117417 117445 117471 117495
215473 215283 215091 214897 214701 214503
177013 173408 169081 164503 162836 158905 155522 152871 144706 134665 129222 123794 119855 119245 118393 112347 106448 102327 101431 100564 99581.8 98599.6 97173 95704.7 93989.1 93622.6 93255.6 92888 92407 91909.3 89989.8 88185.8 86671.9 85884.5 85107.8 84422 83757.2 83107.4 82455.6 81621.7 81586.8 81557.9 81529.8 81501.8 81473 80940.2 80407.9 79876.1 79344.8 78919.7 78493.5 78084.3 77686.7 77311 76945.1 76595.1 76244.8 75921.1 75619.6 75318.6 75029.1 74739.4 74460.9 74198.1 73935.5 73681.8 73428.1 73178.1 72941.9 72705.8 72476.9 72248 72017.5 71798 71578.8 71365.2 71151.6 70933 70722.2 70511.5 70304.3 70097.4 69884.5 69672 69459.9 69248 69036.5 68821.3 68593.3 68365.7 68132.8 67897.1 67653 67400.4 67134.5 66854.2 66540.5 66228.3 65917.6 65604.6 65604.4 65604.2 65603.9 65603.7 65603.4 65212.2 64826.6 64446.7 64048.6 63568.5 63053 62543.3 61842.2 61069.1 60255.9 60007.7 59769.8 59542.8 59316.3 59131 58574.1 58014.9 57453.7 56980.4 56512 55907.5 55304.7 54765 54223.8 53839.5 53781.3 53723.1 53667.7 53620.1 53571.8 53018.6 52458.3 51940.3 51467.9 50922.7 50921.6 50920.5 50919.5 50918.7 50917.9 50490.8 50056.2 49653.7 49318.3 49049.3 48950 48850.3 48779.4 48709.7 48637.1 48448.7 48257.9 48065.3 47920.9 47788.9 47616.1 47447.4 47307.7 47166 47006.6 47000.3 46993.9 46987.5 46981.7 46976.2 46870.9 46758.6 46643.8 46530.6 46423.6 46388.1 46351.3 46311.7 46271.4 46227.5 46207.4 46187.2 46166.7 46145.6 46124.5 46099.1 46072.4 46035.3 45993 45951.5 45953.9 45956.1 45955.3 45954.5 45953.6 45942.3 45930.6 45918.4 45903.4 45888.2 45898 45907.1 45911.6 45915.6 45919.3 45918.5 45917.7 45916.8 45915.7 45914.7 45928.2 45941.8 45954.5 45965.3 45975.6 45985.8 45996.1 46005.9 46015.6 46025.4 46036.9 46048.3 46059.5 46070.6 46081.5 46100 46118.4 46136.9 46155.4 46174 46182.6 46191.1 46199.8 46208.9 46218 46240.7 46263.5 46286.8 46310.7 46334.5 46341.9 46349.3 46357.1 46365.3 46373.6 46396.8 46420.1 46444.3 46469.6 46494.3 46503.2 46512.2 46521.8 46532 46542.3 46562 46581.8 46602.2 46624.1 46645.3 46659.2 46673.1 46688.8 46705.1 46721.8 46733.4 46744.9 46756.6 46769.3 46781.7 46803.6 46825.8 46851.2 46877.4 46903.4 46904.5 46905.6 46907 46908.4 46909.8 46930.9 46952.3 46974.1 46998 47020.4 47029.9 47039.5 47050.5 47061.6 47073 47082.7 47092.5 47102.2 47112.7 47122.8 47140 47157.3 47176.3 47196.1 47215.5 47218.1 47220.7 47223.7 47226.6 47229.6 47243.9 47258.4 47272.9 47288.5 47303.4 47317.2 47331.4 47346.9 47362.5 47379.3 47379.4 47379.5 47379.6 47379.6 47379.7 47394.3 47409 47423.9 47439.8 47455 47467.1 47479.6 47493.2 47506.9 47520.1 47520.7 47521.3 47522 47522.7 47523.4 47535.2 47547 47558.9 47571.5 47584 47594.3 47604.6 47616.3 47628.5 47640.5 47644.5 47648.9 47653.6 47658.2 47663.1 47669 47674.9 47680.7 47686.9 47693.3 47702.1 47711.2 47720.9 47731.8 47742.2 47749.9 47758 47766.9 47775.8 47785 47787.1 47789.5 47792.1 47794.6 47797.3 47802.6 47808 47813.4 47818.9 47824.9 47831.1 47837.7 47844.6 47852.7 47860.5 47865.6 47870.6 47876.9 47883.5 47890.3 47893.9 47898.5 47903.2 47907.9 47913.2 47913.4 47913.6 47913.9 47914.1 47914.4 47918.6 47922.7 47926.8 47930.9 47936 47938.3 47940.9 47943.9 47947.8 47951.6 47952.8 47953.9 47955.8 47958.6 47961.3 47961.2 47961.7 47962.6 47963.5 47964.9 47964.1 47963.8 47963.5 47963.2 47962.9 47962.8 47962.8 47962.8 47962.8 47962.8 47961.4 47960.1 47958.8 47957.4 47956.6 47953.4 47950.9 47948.3 47946 47944.2 47939.9 47935.6 47931.8 47928.8 47925.7 47920.2 47914.7 47909.8 47905.5 47901.2 47894.6 47888 47881.9 47876.2 47870.8 47863 47855.6 47848.4 47841.1 47834.5 47825.8 47817.4 47809 47800.6 47792.5 47783.9 47775.5 47767.1 47758.6 47748.7 47748 47747.3 47746.5 47745.8 47745.1 47734.6 47724.2 47713.7 47703.3 47692.9 47681.2 47669.7 47658.2 47646.7 47635.4 47622.4 47610 47597.5 47585 47572.7 47558.7 47545.1 47531.7 47518.3 47505 47490.1 47475.4 47461 47446.7 47432.5 47416.7 47401 47385.7 47370.5 47355.3 47338.8 47322.2 47306 47289.9 47273.8 47256.5 47239.1 47222 47205 47188.1 47170 47151.9 47133.9 47116.2 47098.4 47079.6 47060.8 47042 47023.4 47005 46985.5 46966 46946.4 46927.1 46907.9 46887.8 46867.6 46847.4 46827.3 46807.4 46786.7 46765.9 46745.1 46724.3 46703.8 46682.5 46661.1 46639.6 46618.3 46597.1 46575.3 46553.3 46531.3 46509.3 46487.6 46465.2 46442.7 46420.2 46397.7 46375.4 46352.5 46329.5 46306.5 46283.5 46260.6 46237.3 46213.8 46190.4 46166.9 46143.6 46119.8 46095.9 46072 46048.1 46024.3 46000.1 45975.8 45951.4 45927.1 45902.9 45878.3 45853.6 45828.9 45804.2 45779.6 45754.6 45729.5 45704.5 45679.4 45654.4 45629.1 45603.7 45578.3 45552.9 45527.5 45501.9 45476.2 45450.5 45424.7 45399.1 45373.1 45347.1 45321.1 45295 45269.1 45242.8 45216.5 45190.2 45163.9 45137.6 45111.1 45084.5 45058 45031.4 45004.9 44978.1 44951.3 44924.4 44897.6 44870.8 44843.8 44816.7 44789.7 44762.6 44735.6 44708.3 44681 44653.7 44626.5 44599.2 44571.7 44544.2 44516.7 44489.2 44461.7 44434 44406.3 44378.6 44350.9 44323.1 44295.3 44267.3 44239.4 44211.5 44183.6 44155.5 44127.4 44099.3 44071.2 44043.1 44014.8 43986.5 43958.2 43929.9 43901.6 43873.2 43844.7 43816.2 43787.8 43759.3 43730.6 43702 43673.3 43644.7 43616 43587.2 43558.4 43529.5 43500.7 43471.9 43442.9 43413.9 43384.9 43355.9 43326.8 43297.7 43268.5 43239.3 43210.2 43181 43151.7 43122.3 43093 43063.6 43034.2 43004.8 42975.2 42945.7 42916.2 42886.7 42857 42827.3 42797.6 42767.9 42738.2 42708.4 42678.5 42648.7 42618.8 42588.9 42558.9 42528.9 42498.8 42468.8 42438.7 42408.6 42378.4 42348.1 42317.9 42287.7 42257.4 42227 42196.6 42166.2 42135.8 42105.2 42074.7 42044.1 42013.5 41982.9 41952.2 41921.5 41890.7 41860 41829.2 41798.3 41767.4 41736.4 41705.5 41674.5 41643.5 41612.3 41581.2 41550.1 41518.9 41487.7 41456.3 41425 41393.7 41362.4 41330.9 41299.4 41267.9 41236.4 41204.8 41173.2 41141.4 41109.7 41078 41046.3 41014.4 40982.5 40950.6 40918.7 40886.7 40854.7 40822.5 40790.4 40758.3 40726.1 40693.9 40661.5 40629.2 40596.9 40564.5 40532 40499.5 40466.9 40434.4 40401.8 40369.1 40336.3 40303.5 40270.8 40238 40205 40172.1 40139.1 40106.1 40073.1 40039.9 40006.7 39973.5 39940.3 39907 39873.6 39840.2 39806.7 39773.3 39739.8 39706.2 39672.5 39638.8 39605.2 39571.4 39537.6 39503.7 39469.8 39435.8 39401.9 39367.8 39333.6 39299.5 39265.3 39231.1 39196.8 39162.4 39128 39093.6 39059.1 39024.5 38989.9 38955.2 38920.6 38885.8 38851 38816.1 38781.2 38746.3 38711.3 38676.2 38641.1 38605.9 38570.8 38535.5 38500.2 38464.8 38429.3 38393.9 38358.4 38322.8 38287.1 38251.5 38215.8 38180 38144.1 38108.2 38072.3 38036.3 38000.3 37964.1 37927.9 37891.7 37855.5 37819.2 37782.8 37746.3 37709.8 37673.3 37636.7 37600 37563.3 37526.5 37489.7 37452.9 37415.9 37378.9 37341.8 37304.8 37267.6 37230.4 37193.1 37155.7 37118.4 37081 37043.4 37005.8 36968.2 36930.6 36892.9 36855.1 36817.2 36779.3 36741.4 36703.4 36665.3 36627.1 36588.9 36550.7 36512.4 36474 36435.5 36397 36358.5 36319.9 36281.2 36242.5 36203.7 36164.9 36126 36087 36048 36008.9 35969.7 35930.6 35891.3 35851.9 35812.5 35773.1 35733.6 35694 35654.4 35614.7 35574.9 35535.2 35495.2 35455.3 35415.3 35375.2 35335.2 35294.9 35254.7 35214.3 35174 35133.6 35093 35052.5 35011.8 34971.2 34930.5 34889.6 34848.7 34807.8 34766.8 34725.8 34684.6 34643.4 34602.1 34560.8 34519.5 34478 34436.4 34394.9 34353.2 34311.6 34269.7 34227.9 34186 34144 34102 34059.9 34017.7 33975.5 33933.2 33890.9 33848.4 33805.9 33763.4 33720.7 33678.1 33635.3 33592.5 33549.6 33506.6 33463.7 33420.5 33377.4 33334.1 33290.8 33247.5 33204.1 33160.6 33117 33073.4 33029.7 32985.9 32942.1 32898.2 32854.2 32810.2 32766.1 32721.9 32677.7 32633.4 32589 32544.5 32500 32455.4 32410.8 32366.1 32321.3 32276.4 32231.5 32186.5 32141.5 32096.3 32051 32005.8 31960.4 31915 31869.5 31823.9 31778.3 31732.6 31686.9 31641 31595 31549.1 31503 31456.9 31410.6 31364.4 31318 31271.6 31225.2 31178.5 31131.9 31085.2 31038.4 30991.6 30944.6 30897.6 30850.6 30803.4 30756.3 30708.9 30661.5 30614.1 30566.6 30519.1 30471.3 30423.6 30375.8 30327.9 30280 30231.9 30183.8 30135.6 30087.3 30039.1 29990.6 29942.1 29893.6 29844.9 29796.3 29747.4 29698.6 29649.6 29600.6 29551.6 29502.3 29453.1 29403.8 29354.4 29305 29255.3 29205.7 29156 29106.2 29056.4 29006.4 28956.4 28906.3 28856.1 28805.9 28755.5 28705.1 28654.6 28604 28553.4 28502.6 28451.8 28400.9 28349.9 28298.9 28247.7 28196.5 28145.2 28093.8 28042.5 27990.8 27939.2 27887.5 27835.7 27783.9 27731.9 27679.8 27627.7 27575.5 27523.3 27470.9 27418.4 27365.9 27313.3 27260.6 27207.8 27154.9 27101.9 27048.9 26995.9 26942.6 26889.2 26835.9 26782.4 26729 26675.2 26621.5 26567.7 26513.8 26459.9 26405.8 26351.6 26297.4 26243.1 26188.8 26134.3 26079.7 26025.1 25970.4 25915.7 25860.7 25805.7 25750.7 25695.7 25640.6 25585.2 25529.9 25474.6 25419.2 25363.8 25308.1 25252.5 25196.9 25141.2 25085.6 25029.7 24973.9 24918.2 24862.4 24806.7 24750.8 24695 24639.3 24583.7 24528 24472.3 24417 24361.9 24306.8 24252.1 24197.4 24142.5 24087.5 24032.5 23977.1 23922.4 23873.7 23825.1 23776.4 23732.7 23683.5 23618.2 23552.7 23487.2 23412.7 23361.5 23331.1 23301.1 23271.3 23257.1 23252.9 23248.8 23244.6 23240.4 23238.9 23236.3 23231 23225.8 23220.5 23214.8 23187.8 23160.6 23133.2 23105.5 23061.9 22986 22917 22848.1 22779.2 22722.9 22671.8 22615.5 22559.1 22502.8 22440.1 22372.3 22304.3 22236.2 22168 22099.6 22028.3 21955 21881.8 21808.6 21733.2 21655 21575.2 21495.4 21415.6 21334.2 21249.9 21163.8 21077.6 20991.5 20903.5 20812.5 20719.6 20626.6 20533.6 20438.8 20340.7 20240.5 20140.2 20039.8 19937.5 19831.6 19723.4 19615.1 19506.7 19396.2 19281.9 19164.8 19047.6 18930.3 18810.5 18686.5 18559.7 18432.8 18305.8 18176.4 18042.3 17904.4 17766.2 17627.9 17486 17339 17189.4 17039.5 16889.5 16737.3 16579.5 16414.9 16250 16084.8 15913.3 15735.5 15557.4 15379.3 15201.1 15023 14838.4 14638.9 14438.5 14237.4 14022.2 13799 13585.9 13373.4 13161.4 12960.1 12751.2 12503.7 12254 12002.1 11712.8 11412.6 11157.3 10904.8 10655 10450.3 10237.7 9921.72 9598.15 9265.99 8833.3 8384.32 8071.56 7773.95 7494.36 7349.26 7198.23 6801.75 6357.29 5839.05 5089.68 4311.39 3779.23 3398.31 3250.96 3316.68 3382.98 3362.04 2777.14 1388.16 0