# vtk DataFile Version 2.0
track0
ASCII
DATASET POLYDATA
POINTS 12278 float
-0.0205 0.001 1e-05
-0.02052 0.000999216 1e-05
-0.02054 0.000998592 1e-05
-0.02056 0.000998126 1e-05
-0.02058 0.000997818 1e-05
-0.0206 0.000997665 1e-05
-0.0205 0.00367778 1e-05
-0.02052 0.00367703 1e-05
-0.02054 0.00367643 1e-05
-0.02056 0.00367599 1e-05
-0.02058 0.00367569 1e-05
-0.0206 0.00367554 1e-05
-0.0205 0.00635556 1e-05
-0.02052 0.00635527 1e-05
-0.02054 0.00635505 1e-05
-0.02056 0.00635488 1e-05
-0.02058 0.00635476 1e-05
-0.0206 0.00635471 1e-05
-0.0205 0.00903333 1e-05
-0.02052 0.00903311 1e-05
-0.02054 0.00903293 1e-05
-0.02056 0.0090328 1e-05
-0.02058 0.00903271 1e-05
-0.0206 0.00903266 1e-05
-0.0205 0.0117111 1e-05
-0.02052 0.0117111 1e-05
-0.02054 0.011711 1e-05
-0.02056 0.011711 1e-05
-0.02058 0.011711 1e-05
-0.0206 0.011711 1e-05
-0.0205 0.0143889 1e-05
-0.02052 0.014389 1e-05
-0.02054 0.014389 1e-05
-0.02056 0.0143891 1e-05
-0.02058 0.0143891 1e-05
-0.0206 0.0143891 1e-05
-0.0205 0.0170667 1e-05
-0.02052 0.017067 1e-05
-0.02054 0.0170672 1e-05
-0.02056 0.0170674 1e-05
-0.02058 0.0170675 1e-05
-0.0206 0.0170676 1e-05
-0.0205 0.0197444 1e-05
-0.02052 0.019745 1e-05
-0.02054 0.0197454 1e-05
-0.02056 0.0197457 1e-05
-0.02058 0.0197459 1e-05
-0.0206 0.019746 1e-05
-0.0205 0.0224222 1e-05
-0.02052 0.022423 1e-05
-0.02054 0.0224236 1e-05
-0.02056 0.0224241 1e-05
-0.02058 0.0224244 1e-05
-0.0206 0.0224245 1e-05
-0.0205 0.0251 1e-05
-0.02052 0.0251003 1e-05
-0.02054 0.0251005 1e-05
-0.02056 0.0251007 1e-05
-0.02058 0.0251008 1e-05
-0.0206 0.0251008 1e-05
-0.0205 0.001 1e-05
-0.0203632 0.00100536 1e-05
-0.0202266 0.00101331 1e-05
-0.0200901 0.00102296 1e-05
-0.0200427 0.00102682 1e-05
-0.0198376 0.00104418 1e-05
-0.0196338 0.00107322 1e-05
-0.0194327 0.00111734 1e-05
-0.0192368 0.00118024 1e-05
-0.0190172 0.00124951 1e-05
-0.0189002 0.00128348 1e-05
-0.0187827 0.00131598 1e-05
-0.0186649 0.001347 1e-05
-0.0185469 0.001377 1e-05
-0.0183807 0.00141936 1e-05
-0.0182041 0.00146458 1e-05
-0.0180267 0.00150692 1e-05
-0.0178487 0.0015464 1e-05
-0.0176703 0.00158389 1e-05
-0.0174976 0.00161991 1e-05
-0.0172846 0.00166394 1e-05
-0.0170715 0.00170741 1e-05
-0.0168583 0.00175029 1e-05
-0.0166449 0.00179219 1e-05
-0.0163945 0.00184007 1e-05
-0.0163234 0.00185324 1e-05
-0.0162522 0.00186629 1e-05
-0.016181 0.00187921 1e-05
-0.0161097 0.00189201 1e-05
-0.0160387 0.0019046 1e-05
-0.0157586 0.0019535 1e-05
-0.0154779 0.00199931 1e-05
-0.0151968 0.00204225 1e-05
-0.0149154 0.00208283 1e-05
-0.0146381 0.00212134 1e-05
-0.0143838 0.00215527 1e-05
-0.0141293 0.00218766 1e-05
-0.0138747 0.00221855 1e-05
-0.0136198 0.00224797 1e-05
-0.0132934 0.00228369 1e-05
-0.0132791 0.00228515 1e-05
-0.0132648 0.0022866 1e-05
-0.0132504 0.00228805 1e-05
-0.0132361 0.0022895 1e-05
-0.0132214 0.00229098 1e-05
-0.0129776 0.00231543 1e-05
-0.0127337 0.00233865 1e-05
-0.0124897 0.00236061 1e-05
-0.0122456 0.0023813 1e-05
-0.0120025 0.00240058 1e-05
-0.0117547 0.00241909 1e-05
-0.0115067 0.00243627 1e-05
-0.0112587 0.00245231 1e-05
-0.0110106 0.00246734 1e-05
-0.0107632 0.00248136 1e-05
-0.0105252 0.00249391 1e-05
-0.0102872 0.00250547 1e-05
-0.0100491 0.00251602 1e-05
-0.00981105 0.00252575 1e-05
-0.00957337 0.00253472 1e-05
-0.00934491 0.00254261 1e-05
-0.00911643 0.00254974 1e-05
-0.00888792 0.00255611 1e-05
-0.0086594 0.00256172 1e-05
-0.00843108 0.00256669 1e-05
-0.00821175 0.00257085 1e-05
-0.00799241 0.00257439 1e-05
-0.00777306 0.00257731 1e-05
-0.0075537 0.00257953 1e-05
-0.00733443 0.00258115 1e-05
-0.00712387 0.00258213 1e-05
-0.0069133 0.00258256 1e-05
-0.00670273 0.00258244 1e-05
-0.00649216 0.00258163 1e-05
-0.0062816 0.00258018 1e-05
-0.00607944 0.0025782 1e-05
-0.0058773 0.00257566 1e-05
-0.00567516 0.00257257 1e-05
-0.00547303 0.00256875 1e-05
-0.00527083 0.0025642 1e-05
-0.00507675 0.00255914 1e-05
-0.00488269 0.00255344 1e-05
-0.00468865 0.00254712 1e-05
-0.00449464 0.00253999 1e-05
-0.00430044 0.00253192 1e-05
-0.00411412 0.0025233 1e-05
-0.00392784 0.0025139 1e-05
-0.00374159 0.0025037 1e-05
-0.0035554 0.00249257 1e-05
-0.00336883 0.00248018 1e-05
-0.00318995 0.00246713 1e-05
-0.00301115 0.00245302 1e-05
-0.00283245 0.00243777 1e-05
-0.00265386 0.00242123 1e-05
-0.00247443 0.00240316 1e-05
-0.0023027 0.00238428 1e-05
-0.00213114 0.00236387 1e-05
-0.00195982 0.00234157 1e-05
-0.00178875 0.00231741 1e-05
-0.00161577 0.00229108 1e-05
-0.00161564 0.00229106 1e-05
-0.00161551 0.00229104 1e-05
-0.00161539 0.00229102 1e-05
-0.00161526 0.002291 1e-05
-0.00161513 0.00229098 1e-05
-0.00145039 0.00226408 1e-05
-0.00128605 0.00223482 1e-05
-0.00112213 0.00220327 1e-05
-0.000958661 0.00216949 1e-05
-0.000791418 0.00213239 1e-05
-0.000633135 0.00209428 1e-05
-0.000475556 0.00205335 1e-05
-0.000318719 0.00200967 1e-05
-0.000162834 0.0019627 1e-05
0 0.00190955 1e-05
3.73592e-05 0.00189634 1e-05
7.46184e-05 0.00188286 1e-05
0.000111779 0.0018691 1e-05
0.000148842 0.00185509 1e-05
0.000179164 0.00184338 1e-05
0.000249008 0.00181595 1e-05
0.000318442 0.00178749 1e-05
0.000387451 0.00175802 1e-05
0.000456021 0.00172754 1e-05
0.000528387 0.00169417 1e-05
0.000634886 0.00164319 1e-05
0.000740278 0.00158996 1e-05
0.00084451 0.0015345 1e-05
0.00094762 0.00147697 1e-05
0.00101995 0.00143469 1e-05
0.00102814 0.00142974 1e-05
0.00103631 0.00142478 1e-05
0.00104448 0.0014198 1e-05
0.00105264 0.0014148 1e-05
0.00106088 0.00140974 1e-05
0.00116821 0.00134356 1e-05
0.00127404 0.001275 1e-05
0.00137827 0.00120405 1e-05
0.00148099 0.00113091 1e-05
0.00159675 0.00104511 1e-05
0.00159691 0.00104499 1e-05
0.00159706 0.00104487 1e-05
0.00159721 0.00104475 1e-05
0.00159736 0.00104463 1e-05
0.00159752 0.00104451 1e-05
0.0016922 0.000970936 1e-05
0.00178547 0.000895591 1e-05
0.00187727 0.000818447 1e-05
0.00196765 0.000739648 1e-05
0.00203805 0.000676367 1e-05
0.0020581 0.000657886 1e-05
0.00207808 0.000639316 1e-05
0.00209797 0.000620656 1e-05
0.0021178 0.000601933 1e-05
0.00213833 0.000582427 1e-05
0.00219147 0.000531601 1e-05
0.00224412 0.000480257 1e-05
0.00229625 0.000428388 1e-05
0.00234784 0.000375989 1e-05
0.00239415 0.000328255 1e-05
0.00245199 0.000267803 1e-05
0.00250919 0.000206751 1e-05
0.00256577 0.000145116 1e-05
0.00262183 8.30154e-05 1e-05
0.00268334 1.37036e-05 1e-05
0.00268572 1.09629e-05 1e-05
0.00268811 8.22112e-06 1e-05
0.00269049 5.47836e-06 1e-05
0.00269287 2.73458e-06 1e-05
0.00269524 0 1e-05
0.00275914 -7.37368e-05 1e-05
0.00282242 -0.000148005 1e-05
0.00288506 -0.000222813 1e-05
0.00294703 -0.000298173 1e-05
0.0030041 -0.000368654 1e-05
0.0030498 -0.000425924 1e-05
0.00309519 -0.00048344 1e-05
0.00314027 -0.000541197 1e-05
0.00318509 -0.00059915 1e-05
0.00323259 -0.000661114 1e-05
0.00325064 -0.00068491 1e-05
0.00326865 -0.000708746 1e-05
0.00328659 -0.000732622 1e-05
0.00330449 -0.000756538 1e-05
0.00332204 -0.00078009 1e-05
0.00339019 -0.000871877 1e-05
0.00345773 -0.000964107 1e-05
0.00352464 -0.00105679 1e-05
0.00359102 -0.00114986 1e-05
0.00365388 -0.00123896 1e-05
0.00368033 -0.00127684 1e-05
0.0037067 -0.00131477 1e-05
0.00373299 -0.00135276 1e-05
0.00375923 -0.00139078 1e-05
0.00378611 -0.00142983 1e-05
0.0038301 -0.00149396 1e-05
0.00387387 -0.00155823 1e-05
0.00391743 -0.00162266 1e-05
0.00396076 -0.00168723 1e-05
0.00400292 -0.00175044 1e-05
0.00407112 -0.00185326 1e-05
0.00413891 -0.00195636 1e-05
0.00420627 -0.00205974 1e-05
0.00427334 -0.0021633 1e-05
0.00434393 -0.00227297 1e-05
0.00434998 -0.00228243 1e-05
0.00435603 -0.0022919 1e-05
0.00436208 -0.00230138 1e-05
0.00436812 -0.00231085 1e-05
0.00437414 -0.0023203 1e-05
0.00445498 -0.00244725 1e-05
0.00453538 -0.00257449 1e-05
0.00461538 -0.00270197 1e-05
0.00469502 -0.00282968 1e-05
0.00477289 -0.00295498 1e-05
0.00479953 -0.00299799 1e-05
0.00482614 -0.00304102 1e-05
0.00485273 -0.00308407 1e-05
0.00487931 -0.00312712 1e-05
0.00490609 -0.0031705 1e-05
0.00496673 -0.00326873 1e-05
0.00502721 -0.00336704 1e-05
0.00508755 -0.00346545 1e-05
0.00514775 -0.00356395 1e-05
0.0052074 -0.00366161 1e-05
0.00526045 -0.00374852 1e-05
0.00531345 -0.00383545 1e-05
0.00536641 -0.00392241 1e-05
0.0054194 -0.00400935 1e-05
0.00547262 -0.00409655 1e-05
0.00551559 -0.00416687 1e-05
0.00555853 -0.0042372 1e-05
0.00560144 -0.00430755 1e-05
0.00564432 -0.00437792 1e-05
0.00568714 -0.00444811 1e-05
0.00575843 -0.00456487 1e-05
0.00582975 -0.00468159 1e-05
0.00590113 -0.00479829 1e-05
0.00597264 -0.0049149 1e-05
0.00604356 -0.00503008 1e-05
0.0060798 -0.00508872 1e-05
0.00611606 -0.00514735 1e-05
0.00615232 -0.00520597 1e-05
0.0061886 -0.00526458 1e-05
0.006225 -0.00532326 1e-05
0.00630378 -0.00545005 1e-05
0.00638276 -0.00557672 1e-05
0.00646193 -0.00570327 1e-05
0.00654138 -0.00582965 1e-05
0.00661893 -0.00595221 1e-05
0.00666281 -0.0060211 1e-05
0.00670675 -0.00608997 1e-05
0.00675073 -0.0061588 1e-05
0.0067948 -0.00622758 1e-05
0.00683926 -0.00629671 1e-05
0.00691116 -0.00640816 1e-05
0.00698332 -0.00651944 1e-05
0.00705573 -0.00663055 1e-05
0.00712844 -0.00674148 1e-05
0.00719878 -0.00684798 1e-05
0.00726944 -0.00695419 1e-05
0.00734032 -0.00706025 1e-05
0.00741142 -0.00716617 1e-05
0.00748283 -0.00727187 1e-05
0.00755577 -0.00737909 1e-05
0.00760125 -0.00744545 1e-05
0.00764685 -0.00751172 1e-05
0.00769257 -0.0075779 1e-05
0.00773843 -0.00764399 1e-05
0.00778313 -0.00770808 1e-05
0.00790091 -0.00787606 1e-05
0.00801946 -0.00804351 1e-05
0.00813878 -0.0082104 1e-05
0.0082591 -0.00837657 1e-05
0.00837203 -0.00853049 1e-05
0.00837968 -0.00854077 1e-05
0.00838733 -0.00855105 1e-05
0.00839498 -0.00856132 1e-05
0.00840263 -0.00857159 1e-05
0.00841031 -0.00858189 1e-05
0.00852135 -0.00873063 1e-05
0.00863321 -0.00887875 1e-05
0.00874592 -0.00902623 1e-05
0.00885949 -0.00917304 1e-05
0.00896551 -0.00930822 1e-05
0.00903004 -0.00938944 1e-05
0.00909483 -0.00947045 1e-05
0.00915989 -0.00955125 1e-05
0.00922525 -0.0096318 1e-05
0.00929278 -0.00971438 1e-05
0.00934694 -0.00978009 1e-05
0.0094013 -0.00984564 1e-05
0.00945586 -0.00991103 1e-05
0.00951061 -0.00997626 1e-05
0.0095636 -0.010039 1e-05
[...]
POINT_DATA 12278
 FIELD attributes 1
U 3 12278 float
9.72339 	0.381311 	0 9.77871 	0.305049 	0 9.83405 	0.228765 	0 9.8894 	0.152465 	0 9.94476 	0.0761532 	0 10 	0 	0
10.0671 	0.375483 	0 10.0537 	0.300387 	0 10.0403 	0.225271 	0 10.0268 	0.150141 	0 10.0134 	0.0750008 	0 10 	0 	0
10.0364 	0.141572 	0 10.0291 	0.113304 	0 10.0218 	0.0850891 	0 10.0145 	0.0569263 	0 10.0071 	0.0288164 	0 10 	0 	0
10.0137 	0.111519 	0 10.011 	0.0892152 	0 10.0082 	0.0669109 	0 10.0055 	0.0446062 	0 10.0027 	0.0223013 	0 10 	0 	0
10.0097 	0.0196536 	0 10.0078 	0.0157229 	0 10.0058 	0.0117922 	0 10.0039 	0.00786143 	0 10.0019 	0.00393071 	0 10 	0 	0
10.0102 	-0.0372873 	0 10.0082 	-0.0298298 	0 10.0061 	-0.0223724 	0 10.0041 	-0.0149149 	0 10.002 	-0.00745737 	0 10 	0 	0
10.0174 	-0.148996 	0 10.0139 	-0.119197 	0 10.0105 	-0.0893967 	0 10.007 	-0.0595953 	0 10.0035 	-0.0297932 	0 10 	0 	0
10.0362 	-0.265901 	0 10.029 	-0.212721 	0 10.0217 	-0.159534 	0 10.0145 	-0.106342 	0 10.0072 	-0.053146 	0 10 	0 	0
10.0563 	-0.387167 	0 10.045 	-0.309734 	0 10.0338 	-0.23228 	0 10.0225 	-0.15481 	0 10.0112 	-0.0773281 	0 10 	0 	0
8.30133 	-0.114495 	0 8.4287 	-0.091596 	0 8.55659 	-0.0686962 	0 8.68498 	-0.0457957 	0 8.81385 	-0.0228949 	0 8.94315 	0 	0
9.72339 	0.381311 	0 9.5415 	0.555241 	0 9.39671 	0.663651 	0 9.26203 	0.754271 	0 9.2183 	0.780385 	0 8.95344 	1.27614 	0 8.70578 	1.91036 	0 8.48173 	2.72184 	0 8.46724 	2.67123 	0 8.47252 	2.45986 	0 8.50117 	2.35314 	0 8.52498 	2.2443 	0 8.51221 	2.16311 	0 8.42487 	2.14738 	0 8.30214 	2.12559 	0 8.30117 	1.9821 	0 8.28715 	1.83798 	0 8.21181 	1.72569 	0 8.035 	1.67507 	0 7.86306 	1.62575 	0 7.68323 	1.56759 	0 7.50177 	1.50875 	0 7.42793 	1.45839 	0 7.36148 	1.40771 	0 7.27865 	1.34671 	0 7.22249 	1.32376 	0 7.16614 	1.3007 	0 7.10958 	1.27753 	0 7.07928 	1.2544 	0 7.05291 	1.23121 	0 6.97394 	1.13838 	0 6.88841 	1.05226 	0 6.79883 	0.980329 	0 6.71191 	0.932083 	0 6.6228 	0.883659 	0 6.55089 	0.833776 	0 6.49228 	0.787589 	0 6.44246 	0.743857 	0 6.3887 	0.699092 	0 6.31694 	0.642267 	0 6.31476 	0.640173 	0 6.3132 	0.638348 	0 6.31172 	0.636561 	0 6.31022 	0.634773 	0 6.30868 	0.632934 	0 6.27131 	0.597064 	0 6.23151 	0.560866 	0 6.18921 	0.524334 	0 6.1444 	0.487465 	0 6.10942 	0.456255 	0 6.07602 	0.420973 	0 6.0457 	0.390998 	0 6.017 	0.364554 	0 5.99442 	0.339604 	0 5.97315 	0.3152 	0 5.95245 	0.289066 	0 5.92972 	0.262723 	0 5.91347 	0.241663 	0 5.90339 	0.222659 	0 5.89181 	0.203592 	0 5.87916 	0.183525 	0 5.86497 	0.163359 	0 5.85626 	0.143795 	0 5.85336 	0.127407 	0 5.84918 	0.110992 	0 5.84295 	0.0943572 	0 5.83548 	0.0776812 	0 5.8334 	0.0589791 	0 5.83629 	0.0431057 	0 5.83799 	0.0272327 	0 5.83715 	0.0119354 	0 5.83533 	-0.00343119 	0 5.83919 	-0.022532 	0 5.8473 	-0.040023 	0 5.85423 	-0.0574598 	0 5.85859 	-0.0735263 	0 5.86183 	-0.0895668 	0 5.87119 	-0.110955 	0 5.88465 	-0.132492 	0 5.89663 	-0.153958 	0 5.90648 	-0.173324 	0 5.91504 	-0.19262 	0 5.92937 	-0.218079 	0 5.94825 	-0.247034 	0 5.96524 	-0.275849 	0 5.98118 	-0.30208 	0 5.99547 	-0.328162 	0 6.01451 	-0.359777 	0 6.03861 	-0.400939 	0 6.06021 	-0.441859 	0 6.08255 	-0.480321 	0 6.10475 	-0.520941 	0 6.13005 	-0.567596 	0 6.15453 	-0.61967 	0 6.17865 	-0.679479 	0 6.20603 	-0.738468 	0 6.23738 	-0.811857 	0 6.26485 	-0.88471 	0 6.28849 	-0.957026 	0 6.3086 	-1.02974 	0 6.30862 	-1.02981 	0 6.30865 	-1.02989 	0 6.30867 	-1.02998 	0 6.30869 	-1.03007 	0 6.30871 	-1.03015 	0 6.33249 	-1.12731 	0 6.35102 	-1.22236 	0 6.36442 	-1.31535 	0 6.37517 	-1.41401 	0 6.38845 	-1.53818 	0 6.40625 	-1.66392 	0 6.4178 	-1.78756 	0 6.40568 	-1.93007 	2.6199e-20 6.3693 	-2.07902 	5.37073e-20 6.31915 	-2.23379 	8.12093e-20 6.31093 	-2.28428 	2.33263e-20 6.29874 	-2.33163 	5.7695e-21 6.28237 	-2.37567 	3.12132e-20 6.26544 	-2.41946 	5.7278e-20 6.25109 	-2.45516 	7.91666e-20 6.2247 	-2.55099 	1.78911e-19 6.19637 	-2.64625 	2.82815e-19 6.1661 	-2.74094 	3.90851e-19 6.11995 	-2.82206 	2.74247e-19 6.06343 	-2.90237 	6.247e-20 5.98347 	-3.02203 	4.92523e-20 5.89831 	-3.13872 	3.61724e-20 5.80144 	-3.23656 	8.5552e-21 5.70018 	-3.33246 	-1.80623e-20 5.62518 	-3.39909 	-3.62222e-20 5.61606 	-3.40837 	-3.60148e-20 5.6069 	-3.41765 	-3.57924e-20 5.59767 	-3.42627 	-3.69403e-20 5.58831 	-3.43321 	-4.17349e-20 5.57881 	-3.44021 	-4.65751e-20 5.45892 	-3.53642 	-2.83068e-20 5.33371 	-3.63066 	-9.46561e-21 5.20767 	-3.70762 	1.17837e-22 5.08145 	-3.7665 	-2.04228e-22 4.93235 	-3.83187 	6.63587e-23 4.93212 	-3.832 	3.79737e-23 4.9319 	-3.83212 	9.58845e-24 4.93169 	-3.83221 	1.68329e-23 4.93149 	-3.83228 	4.22526e-23 4.93129 	-3.83235 	6.76796e-23 4.80556 	-3.8817 	1.12097e-21 4.67573 	-3.92945 	2.47883e-21 4.54879 	-3.96595 	4.20701e-21 4.43113 	-3.98305 	6.33257e-21 4.3358 	-3.99542 	8.20362e-21 4.30549 	-4.00307 	1.33453e-20 4.27497 	-4.01065 	1.85249e-20 4.24969 	-4.01237 	9.2136e-21 4.22454 	-4.01373 	-8.26582e-22 4.19827 	-4.01508 	-1.1236e-20 4.12444 	-4.02239 	-6.36318e-20 4.04942 	-4.02918 	-1.15659e-19 3.97337 	-4.03529 	-1.65866e-19 3.90918 	-4.02976 	-1.01595e-19 3.85035 	-4.02438 	-4.30516e-20 3.7728 	-4.02652 	4.15716e-21 3.69535 	-4.02578 	4.1964e-20 3.62349 	-4.01367 	3.41681e-20 3.55055 	-4.00108 	2.66427e-20 3.46855 	-3.9866 	1.86175e-20 3.46518 	-3.98618 	1.92483e-20 3.46181 	-3.98576 	1.98793e-20 3.45844 	-3.98534 	2.05103e-20 3.45527 	-3.98461 	2.104e-20 3.45218 	-3.98376 	2.15278e-20 3.38405 	-3.97175 	1.41223e-20 3.31386 	-3.9576 	7.41379e-21 3.24246 	-3.94275 	6.99919e-22 3.17067 	-3.91568 	6.17271e-21 3.10304 	-3.88891 	1.23563e-20 3.06097 	-3.87891 	3.47206e-20 3.01859 	-3.86752 	5.06148e-20 2.97701 	-3.84857 	2.33618e-20 2.93502 	-3.82939 	-3.83426e-21 2.88984 	-3.80871 	-3.27509e-20 2.8717 	-3.80214 	-3.88627e-20 2.85347 	-3.79553 	-4.49767e-20 2.83516 	-3.78887 	-5.1093e-20 2.81694 	-3.77979 	-5.72948e-20 2.79899 	-3.77026 	-6.3415e-20 2.7456 	-3.74921 	-1.07142e-19 2.69137 	-3.72765 	-1.5099e-19 2.63657 	-3.69702 	-1.46192e-19 2.58215 	-3.65964 	-8.81833e-20 2.52963 	-3.62354 	-3.27024e-20 2.51271 	-3.61462 	2.04246e-21 2.49576 	-3.6055 	3.51855e-20 2.4799 	-3.59312 	2.99353e-20 2.46397 	-3.58069 	2.47201e-20 2.44756 	-3.56789 	1.9405e-20 2.41701 	-3.5488 	5.65382e-20 2.3862 	-3.52952 	9.35918e-20 2.35513 	-3.51003 	1.30564e-19 2.32512 	-3.48552 	1.0346e-19 2.29571 	-3.46106 	7.22945e-20 2.25879 	-3.43538 	4.24511e-20 2.22141 	-3.40938 	1.25754e-20 2.18685 	-3.37653 	-2.88726e-21 2.15205 	-3.34334 	-1.80891e-20 2.11494 	-3.30803 	-3.41901e-20 2.11122 	-3.30516 	-3.17596e-20 2.10749 	-3.30229 	-2.93319e-20 2.10376 	-3.29942 	-2.69071e-20 2.10025 	-3.29598 	-3.39783e-20 2.09676 	-3.29253 	-4.13474e-20 2.06004 	-3.26025 	-1.6469e-19 2.02431 	-3.22592 	-2.5668e-19 1.98926 	-3.18982 	-2.99666e-19 1.95702 	-3.14893 	-1.93325e-19 1.92526 	-3.10871 	-8.8988e-20 1.91666 	-3.09903 	-7.79021e-20 1.90804 	-3.08934 	-6.68118e-20 1.90071 	-3.0785 	-5.65452e-20 1.89367 	-3.0674 	-4.64692e-20 1.88658 	-3.05622 	-3.63174e-20 1.86465 	-3.03084 	-1.17721e-20 1.8426 	-3.00535 	1.27946e-20 1.821 	-2.97919 	2.99777e-20 1.80197 	-2.95021 	1.21392e-20 1.78307 	-2.92146 	-5.53551e-21 1.76968 	-2.9025 	-2.11512e-20 1.75626 	-2.88352 	-3.67551e-20 1.74502 	-2.86324 	-1.8121e-20 1.73472 	-2.84244 	1.47069e-20 1.72442 	-2.8216 	4.76417e-20 1.71209 	-2.80441 	1.21355e-20 1.69974 	-2.78719 	-2.33204e-20 1.68802 	-2.7695 	-3.49447e-20 1.67794 	-2.75065 	1.29454e-20 1.6679 	-2.73185 	6.07041e-20 1.65457 	-2.70765 	1.97478e-19 1.64126 	-2.68348 	3.34192e-19 1.63034 	-2.65853 	2.96361e-19 1.62118 	-2.6331 	1.33614e-19 1.61227 	-2.60806 	-2.78264e-20 1.60446 	-2.5947 	-5.73751e-20 1.59666 	-2.58135 	-8.69316e-20 1.58967 	-2.56765 	-8.97821e-20 1.58379 	-2.55349 	-5.62837e-20 1.57793 	-2.53934 	-2.27586e-20 1.56794 	-2.51482 	-2.46195e-20 1.55805 	-2.49039 	-2.65202e-20 1.55011 	-2.46585 	-1.93213e-20 1.54467 	-2.44115 	-4.8705e-22 1.5396 	-2.41734 	1.77664e-20 1.53296 	-2.40286 	2.97367e-20 1.52634 	-2.3884 	4.17023e-20 1.52103 	-2.37372 	4.57348e-20 1.51668 	-2.35889 	4.41126e-20 1.51236 	-2.34403 	4.24605e-20 1.50712 	-2.32429 	2.55768e-20 1.50201 	-2.30466 	8.66764e-21 1.49797 	-2.28524 	-3.12843e-21 1.49662 	-2.26619 	-1.11582e-21 1.49552 	-2.24802 	8.17602e-22 1.48856 	-2.22751 	7.62218e-20 1.48169 	-2.2071 	1.51853e-19 1.47743 	-2.18685 	1.25743e-19 1.47409 	-2.16676 	6.77845e-20 1.47087 	-2.14648 	8.99942e-21 1.46967 	-2.13593 	-2.33947e-20 1.46852 	-2.12543 	-5.57453e-20 1.46764 	-2.1151 	-8.20852e-20 1.46917 	-2.1062 	-3.65254e-20 1.47073 	-2.09763 	7.88459e-21 1.4636 	-2.06741 	4.60753e-21 1.45677 	-2.03748 	1.31269e-21 1.45601 	-2.01091 	-2.34839e-20 1.45657 	-1.9852 	-5.17625e-20 1.45917 	-1.96223 	-7.49219e-20 1.4587 	-1.96028 	-6.86334e-20 1.45823 	-1.95833 	-6.23974e-20 1.45818 	-1.95659 	-6.71053e-20 1.45814 	-1.95485 	-7.18109e-20 1.45809 	-1.95311 	-7.65267e-20 1.45621 	-1.92817 	-2.09653e-19 1.4547 	-1.90353 	-3.42044e-19 1.45393 	-1.87947 	-4.46818e-19 1.45818 	-1.85923 	-1.91277e-19 1.46255 	-1.84085 	4.71258e-20 1.4604 	-1.82597 	1.1113e-19 1.45838 	-1.81118 	1.74931e-19 1.45929 	-1.79851 	1.42264e-19 1.46034 	-1.78595 	1.09698e-19 1.46154 	-1.77313 	7.63142e-20 1.46247 	-1.76355 	6.73724e-20 1.46348 	-1.75403 	5.84525e-20 1.46457 	-1.74459 	4.9555e-20 1.46718 	-1.73639 	5.16325e-20 1.46985 	-1.72861 	5.4152e-20 1.46934 	-1.70534 	2.94604e-20 1.46918 	-1.68237 	4.70685e-21 1.4721 	-1.66181 	2.02767e-20 1.47669 	-1.64234 	4.53643e-20 1.48263 	-1.62523 	6.8596e-20 1.48262 	-1.62118 	6.74836e-20 1.4827 	-1.6172 	6.76462e-20 1.48329 	-1.6136 	7.51645e-20 1.48389 	-1.61001 	8.26808e-20 1.48451 	-1.60638 	9.02844e-20 1.48722 	-1.59062 	1.39725e-19 1.49019 	-1.57506 	1.89043e-19 1.49344 	-1.5597 	2.38235e-19 1.49862 	-1.54619 	1.68544e-19 1.50404 	-1.53399 	8.21643e-20 1.5057 	-1.51452 	1.55442e-19 1.5082 	-1.49578 	2.03494e-19 1.51282 	-1.47897 	1.61686e-19 1.51778 	-1.46243 	1.20407e-19 1.52348 	-1.44495 	7.66693e-20 1.52351 	-1.44487 	7.63608e-20 1.52354 	-1.44478 	7.60523e-20 1.52357 	-1.4447 	7.57439e-20 1.5236 	-1.44462 	7.6154e-20 1.52364 	-1.44455 	7.68788e-20 1.52804 	-1.42752 	1.26848e-19 1.53285 	-1.41077 	1.74894e-19 1.53803 	-1.39428 	2.22548e-19 1.5448 	-1.37956 	1.843e-19 1.5519 	-1.36664 	1.1717e-19 1.55524 	-1.34903 	2.032e-19 1.55946 	-1.33232 	2.39303e-19 1.5651 	-1.31718 	1.74557e-19 1.57109 	-1.30227 	1.10026e-19 1.57743 	-1.28873 	3.78561e-20 1.57766 	-1.28775 	3.76095e-20 1.57792 	-1.28683 	3.67962e-20 1.57823 	-1.28596 	3.52682e-20 1.57855 	-1.2851 	3.37399e-20 1.57887 	-1.28423 	3.22029e-20 1.58409 	-1.27026 	-1.33723e-20 1.58962 	-1.25649 	-5.8868e-20 1.59545 	-1.24292 	-1.04282e-19 1.60216 	-1.23055 	-8.93556e-20 1.60923 	-1.21981 	-2.99773e-20 1.61368 	-1.20429 	-7.53635e-20 1.61845 	-1.18898 	-1.21163e-19 1.62453 	-1.1756 	-1.03576e-19 1.63182 	-1.16294 	-6.09359e-20 1.63985 	-1.15156 	3.29996e-22 1.64213 	-1.14475 	2.87027e-20 1.64474 	-1.13844 	2.81919e-20 1.64759 	-1.1325 	7.0993e-21 1.6505 	-1.1266 	-1.39429e-20 1.65363 	-1.12045 	-3.59796e-20 1.65728 	-1.1136 	-6.80015e-20 1.66102 	-1.1068 	-9.99109e-20 1.66485 	-1.10006 	-1.31707e-19 1.66891 	-1.09376 	-1.31257e-19 1.67316 	-1.08826 	-7.98832e-20 1.67831 	-1.07452 	-1.11921e-19 1.68433 	-1.06126 	-1.36226e-19 1.69167 	-1.04885 	-1.4561e-19 1.69986 	-1.03824 	-1.3528e-19 1.70795 	-1.02828 	-1.25291e-19 1.71373 	-1.01477 	-2.75596e-19 1.71999 	-1.00207 	-3.49901e-19 1.72688 	-0.990634 	-2.95831e-19 1.73403 	-0.979354 	-2.42268e-19 1.74233 	-0.969273 	-1.16098e-19 1.74442 	-0.964958 	-8.2746e-20 1.74665 	-0.961092 	-8.49525e-20 1.74895 	-0.957359 	-9.67567e-20 1.75128 	-0.953643 	-1.08513e-19 1.75374 	-0.949785 	-1.20724e-19 1.75861 	-0.942406 	-1.24344e-19 1.76361 	-0.935095 	-1.27936e-19 1.76873 	-0.92785 	-1.31501e-19 1.77398 	-0.920897 	-1.29683e-19 1.77934 	-0.915114 	-1.05225e-19 1.78539 	-0.903183 	-1.32837e-19 1.79244 	-0.891822 	-1.44859e-19 1.80038 	-0.880969 	-1.4363e-19 1.8087 	-0.871905 	-1.02948e-19 1.81698 	-0.863373 	-6.09221e-20 1.8236 	-0.851682 	-1.64884e-19 1.83048 	-0.84016 	-2.6664e-19 1.83764 	-0.830467 	-2.25328e-19 1.84585 	-0.821358 	-1.27946e-19 1.85454 	-0.812912 	4.45509e-23 1.86114 	-0.80238 	1.42608e-22 1.8679 	-0.793476 	1.08067e-22 1.87486 	-0.784714 	6.9525e-23 1.88201 	-0.776053 	3.05561e-23 1.89036 	-0.766307 	-1.42884e-23 1.89076 	-0.76587 	7.45092e-22 1.89116 	-0.765434 	1.50395e-21 1.89155 	-0.764999 	2.26229e-21 1.89195 	-0.764563 	3.0201e-21 1.89234 	-0.764213 	4.44012e-22 1.89982 	-0.754756 	-2.54291e-20 1.90761 	-0.745472 	-4.72973e-20 1.91563 	-0.7363 	-6.89872e-20 1.92386 	-0.727254 	-8.98662e-20 1.93177 	-0.720266 	-3.11809e-20 1.93866 	-0.71031 	-2.11104e-20 1.94623 	-0.700791 	-1.38907e-20 1.95461 	-0.691808 	-1.03778e-20 1.96278 	-0.684539 	-1.59671e-20 1.97092 	-0.677671 	-2.24325e-20 1.97824 	-0.667964 	5.39601e-20 1.98577 	-0.658359 	1.30465e-19 1.9932 	-0.650273 	1.32361e-19 2.00151 	-0.643327 	6.57234e-20 2.00986 	-0.636584 	1.62941e-22 2.01757 	-0.627131 	9.67915e-23 2.0251 	-0.618758 	-1.12159e-20 2.03252 	-0.611217 	-3.10615e-20 2.04013 	-0.603755 	-5.08833e-20 2.04859 	-0.597114 	-6.39309e-20 2.05549 	-0.589429 	-1.06392e-19 2.062 	-0.582935 	-1.0994e-19 2.06865 	-0.576498 	-1.13546e-19 2.07543 	-0.570118 	-1.17212e-19 2.08337 	-0.562858 	-1.21488e-19 2.08416 	-0.562176 	-1.22702e-19 2.08494 	-0.561494 	-1.23915e-19 2.08572 	-0.560813 	-1.25128e-19 2.08651 	-0.560133 	-1.2634e-19 2.08723 	-0.55958 	-1.2223e-19 2.09469 	-0.552278 	-9.4285e-20 2.10238 	-0.545121 	-6.50417e-20 2.11025 	-0.538032 	-3.58364e-20 2.11829 	-0.531013 	-6.66906e-21 2.12556 	-0.525525 	1.79201e-22 2.13272 	-0.51776 	6.74872e-20 2.14054 	-0.510777 	8.64952e-20 2.14855 	-0.503885 	1.03633e-19 2.15621 	-0.49781 	8.43079e-20 2.16322 	-0.492892 	1.48796e-20 2.17061 	-0.48537 	-5.5061e-20 2.17822 	-0.477995 	-1.18853e-19 2.18629 	-0.471356 	-1.35002e-19 2.1932 	-0.466492 	-6.72707e-20 2.20018 	-0.461711 	-7.23849e-23 2.20777 	-0.454431 	-3.94857e-23 2.21553 	-0.44721 	-6.75873e-24 2.22265 	-0.441347 	0 2.22949 	-0.43663 	0 2.23639 	-0.431987 	0 2.24415 	-0.424949 	0 2.25182 	-0.418233 	0 2.25832 	-0.412998 	0 2.26502 	-0.408221 	-1.01285e-20 2.27182 	-0.403716 	-2.51509e-20 2.27971 	-0.396918 	-6.21532e-21 2.28662 	-0.391282 	-6.36223e-21 2.29312 	-0.386232 	-1.58281e-20 2.29974 	-0.381246 	-2.6713e-20 2.30641 	-0.376879 	-6.64555e-20 2.31412 	-0.370567 	-2.84947e-20 2.32047 	-0.365666 	-3.02838e-20 2.32693 	-0.360799 	-3.20448e-20 2.33352 	-0.355964 	-3.37777e-20 2.34012 	-0.351447 	-4.6462e-20 2.34635 	-0.346595 	-3.69278e-20 2.35194 	-0.342389 	-3.83752e-20 2.35763 	-0.338207 	-3.98012e-20 2.36342 	-0.33405 	-4.12059e-20 2.37025 	-0.329241 	-4.28153e-20 2.37078 	-0.328876 	-4.26939e-20 2.37132 	-0.328511 	-4.25726e-20 2.37186 	-0.328146 	-4.24515e-20 2.3724 	-0.327782 	-4.23305e-20 2.37287 	-0.327472 	-4.25128e-20 2.37903 	-0.322882 	-4.92592e-20 2.38529 	-0.318346 	-5.38076e-20 2.39167 	-0.313839 	-5.8279e-20 2.39815 	-0.309359 	-6.26739e-20 2.40378 	-0.305632 	-3.89595e-20 2.41011 	-0.300917 	-7.52005e-20 2.41627 	-0.296557 	-8.73332e-20 2.42254 	-0.292222 	-9.9407e-20 2.42892 	-0.287913 	-1.11422e-19 2.43356 	-0.284927 	-7.12931e-20 2.44013 	-0.280143 	-1.18612e-19 2.44617 	-0.275956 	-1.21139e-19 2.45231 	-0.271793 	-1.23618e-19 2.4582 	-0.267889 	-1.18996e-19 2.46217 	-0.265325 	-7.53406e-20 2.46879 	-0.260709 	-1.1787e-19 2.47495 	-0.256504 	-1.28045e-19 2.48095 	-0.252509 	-1.22439e-19 2.48589 	-0.249248 	-9.48015e-20 2.48962 	-0.24679 	-4.31997e-20 2.49621 	-0.242377 	4.31582e-20 2.5026 	-0.238157 	1.03911e-19 2.50844 	-0.234328 	1.09407e-19 2.51242 	-0.23164 	5.03744e-20 2.51591 	-0.229285 	-2.66919e-20 2.52245 	-0.225071 	-1.75885e-20 2.52909 	-0.220876 	-8.49499e-21 2.53461 	-0.217293 	8.66918e-21 2.53779 	-0.215026 	2.59576e-20 2.54102 	-0.212771 	4.32209e-20 2.5475 	-0.208753 	-4.33238e-20 2.55408 	-0.204752 	-1.29881e-19 2.55907 	-0.201531 	-1.41237e-19 2.56199 	-0.199364 	-7.10752e-20 2.56496 	-0.197209 	-1.01211e-21 2.57136 	-0.193382 	-9.87047e-23 2.57786 	-0.18957 	7.93908e-22 2.58237 	-0.186685 	-1.56627e-20 2.58502 	-0.184617 	-4.94096e-20 2.58773 	-0.182558 	-8.31316e-20 2.59405 	-0.178918 	-4.76759e-20 2.60046 	-0.175291 	-1.2236e-20 2.60453 	-0.172716 	-8.5467e-21 2.60692 	-0.170743 	-2.59304e-20 2.60935 	-0.16878 	-4.32983e-20 2.61557 	-0.165322 	-2.59877e-20 2.62187 	-0.161879 	-8.71655e-21 2.62548 	-0.159602 	-9.46082e-21 2.62767 	-0.157705 	-2.60537e-20 2.62984 	-0.155834 	-4.33792e-20 2.63595 	-0.152555 	-1.64887e-19 2.64159 	-0.149501 	-2.61754e-19 2.64504 	-0.147342 	-2.57064e-19 2.64731 	-0.145463 	-1.64748e-19 2.64921 	-0.143683 	-4.33597e-20 2.6552 	-0.140576 	-2.59816e-20 2.66021 	-0.13787 	-8.62114e-21 2.66349 	-0.135826 	8.70892e-21 2.66584 	-0.13398 	2.13104e-20 2.66747 	-0.132288 	3.02524e-20 2.67334 	-0.12935 	9.13209e-20 2.67773 	-0.126953 	1.18679e-19 2.68085 	-0.125021 	1.17006e-19 2.68329 	-0.123219 	9.21126e-20 2.68466 	-0.121612 	3.1676e-20 2.6904 	-0.118838 	2.3234e-20 2.69421 	-0.116716 	1.48082e-20 2.69715 	-0.114892 	6.3874e-21 2.69969 	-0.113144 	0 2.70081 	-0.111621 	0 2.70641 	-0.109005 	0 2.70966 	-0.107128 	1.47226e-20 2.71244 	-0.105409 	3.2553e-20 2.71506 	-0.103721 	5.03682e-20 2.71593 	-0.10228 	6.81101e-20 2.7214 	-0.0998179 	1.90107e-19 2.72412 	-0.0981559 	1.93605e-19 2.72674 	-0.0965379 	1.91078e-19 2.7294 	-0.0949231 	1.88602e-19 2.73007 	-0.0935562 	7.02164e-20 2.73521 	-0.0912938 	5.32022e-20 2.73762 	-0.0897705 	3.62411e-20 2.74008 	-0.08825 	1.92718e-20 2.74257 	-0.0867322 	2.29437e-21 2.74325 	-0.0854167 	1.46973e-20 2.74794 	-0.083371 	-4.34513e-24 2.7502 	-0.081942 	-2.98911e-23 2.7525 	-0.0805153 	-5.54269e-23 2.75483 	-0.0790911 	-8.09525e-23 2.75552 	-0.0778312 	6.38873e-21 2.75978 	-0.0759805 	-5.08035e-20 2.76189 	-0.0746421 	-4.95046e-20 2.76403 	-0.0733058 	-4.82331e-20 2.76621 	-0.0719716 	-4.6989e-20 2.7669 	-0.0707703 	-5.64345e-21 2.77077 	-0.0690951 	8.5598e-23 2.77272 	-0.0678438 	6.04917e-23 2.77472 	-0.0665942 	3.53755e-23 2.77674 	-0.0653464 	1.02497e-23 2.77742 	-0.0642059 	0 2.78093 	-0.0626886 	1.11916e-20 2.78274 	-0.0615207 	3.7515e-20 2.78459 	-0.0603544 	6.38296e-20 2.78647 	-0.0591895 	9.01356e-20 2.78714 	-0.0581109 	1.07499e-19 2.79031 	-0.0567359 	1.73096e-19 2.79199 	-0.0556479 	1.72018e-19 2.79369 	-0.0545612 	1.70967e-19 2.79543 	-0.0534758 	1.69945e-19 2.79609 	-0.0524596 	1.02488e-19 2.79895 	-0.0512128 	8.75818e-20 2.80049 	-0.0502011 	5.31482e-20 2.80206 	-0.0491906 	1.87091e-20 2.80367 	-0.0481812 	-1.57354e-20 2.8043 	-0.0472271 	-4.669e-20 2.80687 	-0.046096 	-9.0207e-20 2.80829 	-0.0451572 	-8.89992e-20 2.80974 	-0.0442194 	-8.78251e-20 2.81121 	-0.0432825 	-8.66849e-20 2.81182 	-0.0423898 	-3.70508e-20 2.81413 	-0.0413632 	-4.95336e-20 2.81543 	-0.0404939 	-3.17129e-20 2.81675 	-0.0396253 	-1.39101e-20 2.8181 	-0.0387575 	3.87494e-21 2.81867 	-0.0379252 	4.31041e-20 2.82075 	-0.0369932 	4.98636e-20 2.82194 	-0.0361898 	6.73346e-20 2.82314 	-0.0353872 	8.47974e-20 2.82437 	-0.0345851 	1.02252e-19 2.8249 	-0.0338115 	1.22067e-19 2.82678 	-0.0329652 	1.46225e-19 2.82785 	-0.0322246 	1.37003e-19 2.82894 	-0.0314844 	1.27802e-19 2.83006 	-0.0307448 	1.18621e-19 2.83055 	-0.0300281 	8.16894e-20 2.83224 	-0.0292597 	5.80653e-20 2.83321 	-0.0285784 	3.2317e-20 2.8342 	-0.0278975 	6.56695e-21 2.83521 	-0.0272171 	-1.9185e-20 2.83565 	-0.0265553 	-4.10469e-20 2.83717 	-0.0258577 	-5.61595e-20 2.83804 	-0.0252325 	-3.83853e-20 2.83894 	-0.0246077 	-2.06373e-20 2.83985 	-0.0239833 	-2.91524e-21 2.84023 	-0.0233741 	4.84819e-20 2.8416 	-0.0227411 	1.02309e-19 2.84239 	-0.0221689 	1.09989e-19 2.84319 	-0.021597 	1.17713e-19 2.84401 	-0.0210254 	1.2548e-19 2.84433 	-0.0204665 	8.86211e-20 2.84558 	-0.0198924 	7.18003e-20 2.84628 	-0.0193702 	6.32567e-20 2.847 	-0.0188481 	5.47089e-20 2.84773 	-0.0183263 	4.6157e-20 2.84798 	-0.0178152 	3.76077e-20 2.84913 	-0.0172951 	1.44173e-20 2.84975 	-0.0168198 	1.47652e-20 2.85038 	-0.0163446 	1.50905e-20 2.85103 	-0.0158697 	1.53932e-20 2.85122 	-0.0154038 	4.14751e-20 2.85227 	-0.0149332 	3.9858