# vtk DataFile Version 2.0
track0
ASCII
DATASET POLYDATA
POINTS 12278 float
-0.0205 0.001 1e-05
-0.02052 0.000999216 1e-05
-0.02054 0.000998592 1e-05
-0.02056 0.000998126 1e-05
-0.02058 0.000997818 1e-05
-0.0206 0.000997665 1e-05
-0.0205 0.00367778 1e-05
-0.02052 0.00367703 1e-05
-0.02054 0.00367643 1e-05
-0.02056 0.00367599 1e-05
-0.02058 0.00367569 1e-05
-0.0206 0.00367554 1e-05
-0.0205 0.00635556 1e-05
-0.02052 0.00635527 1e-05
-0.02054 0.00635505 1e-05
-0.02056 0.00635488 1e-05
-0.02058 0.00635476 1e-05
-0.0206 0.00635471 1e-05
-0.0205 0.00903333 1e-05
-0.02052 0.00903311 1e-05
-0.02054 0.00903293 1e-05
-0.02056 0.0090328 1e-05
-0.02058 0.00903271 1e-05
-0.0206 0.00903266 1e-05
-0.0205 0.0117111 1e-05
-0.02052 0.0117111 1e-05
-0.02054 0.011711 1e-05
-0.02056 0.011711 1e-05
-0.02058 0.011711 1e-05
-0.0206 0.011711 1e-05
-0.0205 0.0143889 1e-05
-0.02052 0.014389 1e-05
-0.02054 0.014389 1e-05
-0.02056 0.0143891 1e-05
-0.02058 0.0143891 1e-05
-0.0206 0.0143891 1e-05
-0.0205 0.0170667 1e-05
-0.02052 0.017067 1e-05
-0.02054 0.0170672 1e-05
-0.02056 0.0170674 1e-05
-0.02058 0.0170675 1e-05
-0.0206 0.0170676 1e-05
-0.0205 0.0197444 1e-05
-0.02052 0.019745 1e-05
-0.02054 0.0197454 1e-05
-0.02056 0.0197457 1e-05
-0.02058 0.0197459 1e-05
-0.0206 0.019746 1e-05
-0.0205 0.0224222 1e-05
-0.02052 0.022423 1e-05
-0.02054 0.0224236 1e-05
-0.02056 0.0224241 1e-05
-0.02058 0.0224244 1e-05
-0.0206 0.0224245 1e-05
-0.0205 0.0251 1e-05
-0.02052 0.0251003 1e-05
-0.02054 0.0251005 1e-05
-0.02056 0.0251007 1e-05
-0.02058 0.0251008 1e-05
-0.0206 0.0251008 1e-05
-0.0205 0.001 1e-05
-0.0203632 0.00100536 1e-05
-0.0202266 0.00101331 1e-05
-0.0200901 0.00102296 1e-05
-0.0200427 0.00102682 1e-05
-0.0198376 0.00104418 1e-05
-0.0196338 0.00107322 1e-05
-0.0194327 0.00111734 1e-05
-0.0192368 0.00118024 1e-05
-0.0190172 0.00124951 1e-05
-0.0189002 0.00128348 1e-05
-0.0187827 0.00131598 1e-05
-0.0186649 0.001347 1e-05
-0.0185469 0.001377 1e-05
-0.0183807 0.00141936 1e-05
-0.0182041 0.00146458 1e-05
-0.0180267 0.00150692 1e-05
-0.0178487 0.0015464 1e-05
-0.0176703 0.00158389 1e-05
-0.0174976 0.0016199 1e-05
-0.0172846 0.00166394 1e-05
-0.0170715 0.00170741 1e-05
-0.0168583 0.00175029 1e-05
-0.0166449 0.00179219 1e-05
-0.0163945 0.00184007 1e-05
-0.0163233 0.00185324 1e-05
-0.0162522 0.00186628 1e-05
-0.0161809 0.00187921 1e-05
-0.0161097 0.00189201 1e-05
-0.0160387 0.00190459 1e-05
-0.0157586 0.00195349 1e-05
-0.0154779 0.0019993 1e-05
-0.0151968 0.00204224 1e-05
-0.0149154 0.00208282 1e-05
-0.0146381 0.00212133 1e-05
-0.0143838 0.00215526 1e-05
-0.0141293 0.00218765 1e-05
-0.0138746 0.00221855 1e-05
-0.0136197 0.00224797 1e-05
-0.0132934 0.00228367 1e-05
-0.0132791 0.00228514 1e-05
-0.0132647 0.00228659 1e-05
-0.0132503 0.00228804 1e-05
-0.013236 0.00228949 1e-05
-0.0132212 0.00229098 1e-05
-0.0129775 0.00231543 1e-05
-0.0127336 0.00233865 1e-05
-0.0124896 0.0023606 1e-05
-0.0122456 0.00238128 1e-05
-0.0120025 0.00240056 1e-05
-0.0117547 0.00241907 1e-05
-0.0115067 0.00243626 1e-05
-0.0112587 0.0024523 1e-05
-0.0110106 0.00246733 1e-05
-0.0107632 0.00248135 1e-05
-0.0105252 0.0024939 1e-05
-0.0102872 0.00250546 1e-05
-0.0100491 0.00251601 1e-05
-0.00981105 0.00252575 1e-05
-0.00957337 0.00253471 1e-05
-0.00934491 0.00254261 1e-05
-0.00911643 0.00254975 1e-05
-0.00888792 0.00255611 1e-05
-0.0086594 0.00256173 1e-05
-0.00843108 0.0025667 1e-05
-0.00821175 0.00257087 1e-05
-0.00799241 0.00257442 1e-05
-0.00777306 0.00257734 1e-05
-0.0075537 0.00257956 1e-05
-0.00733443 0.00258119 1e-05
-0.00712387 0.00258218 1e-05
-0.0069133 0.00258262 1e-05
-0.00670273 0.0025825 1e-05
-0.00649216 0.00258169 1e-05
-0.0062816 0.00258026 1e-05
-0.00607944 0.00257829 1e-05
-0.0058773 0.00257576 1e-05
-0.00567516 0.00257268 1e-05
-0.00547303 0.00256887 1e-05
-0.00527083 0.00256433 1e-05
-0.00507675 0.00255927 1e-05
-0.00488269 0.00255359 1e-05
-0.00468865 0.00254728 1e-05
-0.00449464 0.00254016 1e-05
-0.00430044 0.00253211 1e-05
-0.00411412 0.00252351 1e-05
-0.00392784 0.00251411 1e-05
-0.00374159 0.00250393 1e-05
-0.0035554 0.00249281 1e-05
-0.00336883 0.00248044 1e-05
-0.00318995 0.00246741 1e-05
-0.00301115 0.00245331 1e-05
-0.00283245 0.00243808 1e-05
-0.00265386 0.00242156 1e-05
-0.00247443 0.00240352 1e-05
-0.0023027 0.00238465 1e-05
-0.00213114 0.00236426 1e-05
-0.00195982 0.00234198 1e-05
-0.00178875 0.00231785 1e-05
-0.00161577 0.00229155 1e-05
-0.00161507 0.00229143 1e-05
-0.00161437 0.00229132 1e-05
-0.00161367 0.00229121 1e-05
-0.00161297 0.00229109 1e-05
-0.00161228 0.00229098 1e-05
-0.00144811 0.00226415 1e-05
-0.00128433 0.00223498 1e-05
-0.00112098 0.00220354 1e-05
-0.000958073 0.00216987 1e-05
-0.000791418 0.00213292 1e-05
-0.000633135 0.00209484 1e-05
-0.000475556 0.00205394 1e-05
-0.000318717 0.00201028 1e-05
-0.000162829 0.00196334 1e-05
0 0.00191023 1e-05
3.77465e-05 0.00189689 1e-05
7.53909e-05 0.00188327 1e-05
0.000112935 0.00186938 1e-05
0.000150379 0.00185522 1e-05
0.000180945 0.00184341 1e-05
0.000250434 0.00181611 1e-05
0.000319516 0.00178779 1e-05
0.000388177 0.00175847 1e-05
0.000456403 0.00172815 1e-05
0.000528387 0.00169497 1e-05
0.000634886 0.00164402 1e-05
0.000740279 0.00159083 1e-05
0.000844512 0.00153539 1e-05
0.000947624 0.0014779 1e-05
0.00102154 0.00143471 1e-05
0.00102941 0.00142995 1e-05
0.00103727 0.00142518 1e-05
0.00104512 0.0014204 1e-05
0.00105296 0.0014156 1e-05
0.00106088 0.00141074 1e-05
0.00116821 0.00134459 1e-05
0.00127404 0.00127608 1e-05
0.00137828 0.00120516 1e-05
0.001481 0.00113207 1e-05
0.00159752 0.00104575 1e-05
0.00159768 0.00104563 1e-05
0.00159784 0.0010455 1e-05
0.001598 0.00104538 1e-05
0.00159816 0.00104525 1e-05
0.00159832 0.00104513 1e-05
0.00169318 0.000971429 1e-05
0.00178663 0.000895955 1e-05
0.0018786 0.000818676 1e-05
0.00196914 0.000739737 1e-05
0.00203962 0.00067638 1e-05
0.00205936 0.000658186 1e-05
0.00207902 0.000639907 1e-05
0.0020986 0.00062154 1e-05
0.00211812 0.000603113 1e-05
0.00213833 0.000583927 1e-05
0.00219181 0.000532801 1e-05
0.00224478 0.000481153 1e-05
0.00229724 0.000428972 1e-05
0.00234915 0.000376253 1e-05
0.0023957 0.000328261 1e-05
0.00245323 0.000268125 1e-05
0.00251013 0.000207396 1e-05
0.00256641 0.000146088 1e-05
0.00262218 8.43194e-05 1e-05
0.00268334 1.54081e-05 1e-05
0.00268602 1.23264e-05 1e-05
0.0026887 9.24354e-06 1e-05
0.00269138 6.15934e-06 1e-05
0.00269406 3.07385e-06 1e-05
0.00269672 0 1e-05
0.0027606 -7.37376e-05 1e-05
0.00282386 -0.000148008 1e-05
0.00288649 -0.000222819 1e-05
0.00294844 -0.000298183 1e-05
0.00300549 -0.000368658 1e-05
0.00305091 -0.000425606 1e-05
0.00309602 -0.000482797 1e-05
0.00314083 -0.000540228 1e-05
0.00318539 -0.000597852 1e-05
0.00323259 -0.000659454 1e-05
0.00325089 -0.000683584 1e-05
0.00326914 -0.000707754 1e-05
0.00328733 -0.000731965 1e-05
0.00330547 -0.000756218 1e-05
0.00332326 -0.000780097 1e-05
0.00339135 -0.000871884 1e-05
0.00345885 -0.000964116 1e-05
0.00352572 -0.0010568 1e-05
0.00359204 -0.00114988 1e-05
0.00365484 -0.00123896 1e-05
0.00368109 -0.00127661 1e-05
0.00370727 -0.0013143 1e-05
0.00373338 -0.00135205 1e-05
0.00375943 -0.00138983 1e-05
0.00378611 -0.00142864 1e-05
0.00383022 -0.001493 1e-05
0.00387411 -0.00155752 1e-05
0.00391779 -0.00162219 1e-05
0.00396123 -0.00168701 1e-05
0.00400349 -0.00175044 1e-05
0.00407158 -0.00185323 1e-05
0.00413925 -0.00195629 1e-05
0.00420649 -0.00205964 1e-05
0.00427344 -0.00216317 1e-05
0.00434393 -0.00227286 1e-05
0.00434999 -0.00228235 1e-05
0.00435604 -0.00229184 1e-05
0.00436209 -0.00230133 1e-05
0.00436813 -0.00231083 1e-05
0.00437416 -0.0023203 1e-05
0.00445486 -0.00244725 1e-05
0.00453511 -0.00257449 1e-05
0.00461495 -0.00270197 1e-05
0.00469444 -0.00282969 1e-05
0.00477213 -0.00295497 1e-05
0.00479892 -0.00299832 1e-05
0.00482569 -0.0030417 1e-05
0.00485242 -0.00308509 1e-05
0.00487915 -0.00312849 1e-05
0.00490609 -0.00317222 1e-05
0.00496636 -0.0032701 1e-05
0.00502649 -0.00336807 1e-05
0.00508646 -0.00346613 1e-05
0.00514629 -0.00356428 1e-05
0.00520556 -0.00366158 1e-05
0.00525898 -0.00374933 1e-05
0.00531234 -0.00383712 1e-05
0.00536567 -0.00392492 1e-05
0.00541902 -0.00401272 1e-05
0.00547262 -0.00410082 1e-05
0.00551493 -0.00417027 1e-05
0.00555721 -0.00423974 1e-05
0.00559946 -0.00430923 1e-05
0.00564169 -0.00437873 1e-05
0.00568384 -0.00444806 1e-05
0.00575578 -0.00456629 1e-05
0.00582777 -0.0046845 1e-05
0.0058998 -0.00480268 1e-05
0.00597196 -0.00492077 1e-05
0.00604356 -0.00503746 1e-05
0.00607875 -0.00509461 1e-05
0.00611396 -0.00515174 1e-05
0.00614917 -0.00520888 1e-05
0.0061844 -0.005266 1e-05
0.00621973 -0.00532317 1e-05
0.00629957 -0.00545216 1e-05
0.0063796 -0.00558103 1e-05
0.00645983 -0.00570978 1e-05
0.00654034 -0.00583835 1e-05
0.00661893 -0.00596303 1e-05
0.00666126 -0.00602974 1e-05
0.00670363 -0.00609642 1e-05
0.00674605 -0.00616307 1e-05
0.00678855 -0.00622966 1e-05
0.0068314 -0.00629659 1e-05
0.00690487 -0.00641097 1e-05
0.00697861 -0.00652519 1e-05
0.00705262 -0.00663923 1e-05
0.00712694 -0.00675307 1e-05
0.00719878 -0.00686229 1e-05
0.00726725 -0.00696561 1e-05
0.00733593 -0.00706878 1e-05
0.00740481 -0.00717182 1e-05
0.00747399 -0.00727466 1e-05
0.0075446 -0.00737892 1e-05
0.00759231 -0.00744887 1e-05
0.00764015 -0.00751873 1e-05
0.00768814 -0.00758849 1e-05
0.00773628 -0.00765815 1e-05
0.00778313 -0.00772558 1e-05
0.00790091 -0.00789417 1e-05
0.00801946 -0.00806222 1e-05
0.00813879 -0.00822971 1e-05
0.00825914 -0.00839647 1e-05
0.00837203 -0.00855085 1e-05
0.0083766 -0.00855701 1e-05
0.00838117 -0.00856318 1e-05
0.00838574 -0.00856934 1e-05
0.00839032 -0.00857551 1e-05
0.0083949 -0.00858168 1e-05
0.00850902 -0.00873533 1e-05
0.00862402 -0.00888832 1e-05
0.00873992 -0.00904063 1e-05
0.00885674 -0.00919224 1e-05
0.00896551 -0.00933141 1e-05
0.00902613 -0.00940794 1e-05
0.00908699 -0.00948429 1e-05
0.00914808 -0.00956044 1e-05
0.00920945 -0.00963639 1e-05
0.00927272 -0.00971412 1e-05
0.0093309 -0.00978506 1e-05
0.0093893 -0.00985581 1e-05
0.00944793 -0.00992636 1e-05
0.0095068 -0.00999673 1e-05
0.0095636 -0.0100642 1e-05
[...]
POINT_DATA 12278
 FIELD attributes 2
p 1 12278 float
177056 177138 177210 177273 177327 177372
108989 109007 109024 109038 109050 109060
87796.1 87805.7 87815 87824.2 87833.1 87841.5
79978.6 79984.9 79991.1 79997.3 80003.3 80009.3
77188 77197.2 77206.4 77215.6 77224.9 77234.1
77605.6 77619.2 77632.8 77646.3 77659.9 77673.4
81139 81151.5 81163.7 81175.8 81187.7 81199.5
90965.7 90985.4 91004.5 91022.8 91040.4 91057.2
117398 117430 117461 117489 117515 117539
215517 215327 215135 214941 214745 214547
177056 173450 169123 164545 162879 158947 155564 152914 144748 134707 129265 123836 119898 119287 118435 112390 106490 102369 101473 100606 99624.2 98642 97215.3 95746.9 94031.2 93664.8 93297.8 92930.3 92449.3 91951.6 90032 88228.1 86714.1 85926.7 85150 84464.1 83799.2 83149.3 82497.5 81663.7 81628.7 81599.8 81571.7 81543.6 81514.7 80982 80449.7 79917.9 79386.6 78961.5 78535.3 78126.1 77728.3 77352.7 76986.6 76636.6 76286.3 75962.5 75661 75359.9 75070.3 74780.6 74502 74239.1 73976.5 73722.7 73469 73218.8 72982.6 72746.5 72517.5 72288.5 72057.9 71838.3 71619.1 71405.3 71191.7 70973 70762.1 70551.4 70344.1 70137.1 69924.1 69711.6 69499.4 69287.4 69075.8 68860.5 68632.5 68404.8 68171.8 67936.2 67692 67439.3 67173.3 66893.2 66579.4 66267.3 65956.7 65643.5 65642 65640.2 65638.3 65636.5 65634.6 65245 64861 64482.5 64085.9 63607.7 63092.3 62582.7 61883.3 61110.5 60297.9 60047.2 59806.8 59577.5 59348.7 59161.9 58608.3 58052.5 57494.7 57024.2 56558.8 55954.6 55351.9 54812.5 54271.7 53878.8 53823 53767.2 53714.1 53668.4 53622.2 53069.5 52509.7 51991.4 51519.6 50970.7 50970 50969.3 50968.6 50968.1 50967.5 50539.9 50104.7 49702.2 49366.1 49096.9 48999.3 48901.3 48831.6 48763.1 48691.7 48502.2 48310.3 48116.6 47971.3 47838.5 47666.7 47499 47360.1 47219.2 47060.8 47053.6 47046.3 47039.1 47032.5 47026.3 46921.5 46809.2 46694.3 46581 46474 46438.6 46401.9 46362.5 46322.3 46278.7 46258.2 46237.6 46216.9 46195.4 46173.9 46148.4 46121.5 46084.4 46041.9 46000.2 46002.5 46004.5 46003.7 46002.8 46001.7 45990.2 45978.4 45966 45950.8 45935.4 45944.9 45953.7 45958 45961.7 45965.1 45964.2 45963.3 45962.4 45961.4 45960.3 45973.5 45986.8 45999.1 46009.5 46019.4 46029.6 46039.8 46049.6 46059.2 46068.9 46080.2 46091.3 46102.2 46112.9 46123.5 46141.9 46160.2 46178.6 46197 46215.6 46223.9 46232.1 46240.5 46249.3 46258.1 46280.8 46303.5 46326.8 46350.7 46374.4 46381.5 46388.5 46395.9 46403.8 46411.7 46435 46458.4 46482.6 46507.9 46532.8 46541.2 46549.7 46558.9 46568.6 46578.4 46598.3 46618.3 46639 46661.1 46682.6 46695.9 46709.3 46724.3 46739.9 46755.9 46767.9 46779.9 46792.1 46805.3 46818.2 46839.9 46861.8 46887.2 46913.2 46938.4 46939.1 46939.7 46940.5 46941.3 46942.1 46963.7 46985.5 47007.7 47032.1 47054.9 47063.8 47072.7 47082.9 47093.2 47103.8 47114.1 47124.5 47135 47146.1 47156.9 47174 47191.2 47210.1 47229.5 47248.7 47250.6 47252.6 47254.8 47257.1 47259.3 47274.3 47289.3 47304.5 47320.8 47336.4 47349.3 47362.7 47377.3 47392 47407.9 47408.8 47409.7 47410.6 47411.5 47412.5 47426.7 47441.4 47456.1 47472 47487.1 47498.7 47510.8 47523.9 47537.1 47551.5 47551.5 47551.5 47551.5 47551.6 47551.6 47564 47576.4 47589 47602.3 47615.4 47625.6 47635.9 47647.5 47659.5 47671.4 47674.8 47678.5 47682.4 47686.4 47690.5 47697 47703.5 47710.1 47716.9 47724.1 47732.8 47741.6 47751.4 47762.2 47772.5 47780 47788.2 47797 47805.8 47814.8 47816.4 47818.2 47820.2 47822.1 47824.1 47830 47835.9 47841.8 47847.9 47854.6 47860.7 47867 47873.9 47881.9 47889.6 47894.6 47899.6 47905.7 47912.2 47918.8 47922 47926.2 47930.4 47934.5 47939.2 47939.9 47940.5 47941.2 47941.9 47942.7 47946.6 47950.6 47954.6 47958.7 47963.7 47965.9 47968.3 47971.1 47974.9 47978.7 47979.7 47980.7 47982.5 47985.1 47987.7 47987.5 47988 47988.7 47989.4 47990.7 47989.8 47989.5 47989.2 47988.8 47988.3 47988.3 47988.2 47988.1 47988.1 47988.1 47986.6 47985.1 47983.6 47982.1 47981.2 47977.9 47975.2 47972.5 47970.1 47968.2 47963.7 47959.2 47955.4 47952.2 47949 47943.4 47937.7 47932.6 47928.2 47923.8 47917 47910.4 47904.2 47898.3 47892.7 47884.8 47877.3 47869.9 47862.5 47855.7 47846.9 47838.4 47829.9 47821.4 47813.1 47805.3 47797.6 47790 47782.3 47773.5 47771.8 47770.1 47768.4 47766.7 47765 47754.4 47743.9 47733.3 47722.7 47712.2 47700.3 47688.7 47677.1 47665.5 47654.1 47641 47628.3 47615.7 47603.1 47590.7 47576.6 47562.9 47549.3 47535.8 47522.4 47507.4 47492.6 47478.1 47463.6 47449.3 47433.4 47417.6 47402.2 47386.9 47371.6 47354.9 47338.2 47321.9 47305.7 47289.5 47272 47254.6 47237.3 47220.3 47203.2 47185 47166.9 47148.7 47130.9 47113 47094.1 47075.2 47056.3 47037.6 47019 46999.5 46979.9 46960.2 46940.8 46921.5 46901.3 46881 46860.7 46840.6 46820.6 46799.8 46778.9 46758 46737.1 46716.5 46695.1 46673.6 46652.1 46630.7 46609.4 46587.5 46565.4 46543.4 46521.3 46499.5 46477 46454.5 46431.9 46409.3 46386.9 46364 46340.9 46317.8 46294.7 46271.8 46248.4 46224.9 46201.3 46177.8 46154.4 46130.5 46106.6 46082.6 46058.6 46034.8 46010.5 45986.1 45961.7 45937.4 45913.1 45888.4 45863.6 45838.9 45814.1 45789.4 45764.4 45739.3 45714.2 45689 45664 45638.6 45613.2 45587.7 45562.2 45536.8 45511.1 45485.4 45459.6 45433.8 45408.1 45382.1 45356 45329.9 45303.9 45277.8 45251.5 45225.2 45198.8 45172.5 45146.1 45119.6 45092.9 45066.3 45039.7 45013.1 44986.3 44959.4 44932.5 44905.7 44878.8 44851.7 44824.6 44797.5 44770.4 44743.3 44716 44688.7 44661.4 44634 44606.7 44579.2 44551.6 44524.1 44496.5 44469 44441.2 44413.5 44385.7 44358 44330.2 44302.3 44274.3 44246.3 44218.4 44190.4 44162.3 44134.1 44106 44077.8 44049.7 44021.4 43993 43964.7 43936.3 43908 43879.5 43851 43822.4 43793.9 43765.4 43736.7 43708 43679.3 43650.6 43621.9 43593 43564.2 43535.3 43506.4 43477.5 43448.5 43419.4 43390.4 43361.3 43332.3 43303.1 43273.8 43244.6 43215.4 43186.2 43156.8 43127.4 43098 43068.6 43039.2 43009.7 42980.1 42950.5 42921 42891.4 42861.7 42831.9 42802.2 42772.5 42742.7 42712.8 42682.9 42653 42623.1 42593.2 42563.1 42533 42503 42472.9 42442.8 42412.6 42382.3 42352 42321.8 42291.5 42261.1 42230.7 42200.2 42169.8 42139.4 42108.8 42078.2 42047.6 42016.9 41986.3 41955.6 41924.8 41894 41863.2 41832.3 41801.4 41770.4 41739.5 41708.5 41677.5 41646.3 41615.2 41584 41552.8 41521.6 41490.3 41459 41427.6 41396.3 41364.9 41333.4 41301.8 41270.3 41238.7 41207.1 41175.4 41143.7 41111.9 41080.2 41048.4 41016.5 40984.5 40952.6 40920.6 40888.7 40856.5 40824.4 40792.2 40760.1 40727.9 40695.6 40663.2 40630.8 40598.5 40566.1 40533.5 40501 40468.4 40435.8 40403.2 40370.4 40337.7 40304.9 40272.1 40239.2 40206.3 40173.2 40140.2 40107.2 40074.1 40041 40007.7 39974.5 39941.3 39908 39874.5 39841.1 39807.6 39774.1 39740.6 39707 39673.3 39639.6 39605.9 39572.1 39538.2 39504.3 39470.4 39436.4 39402.4 39368.3 39334.2 39300 39265.8 39231.6 39197.2 39162.8 39128.4 39093.9 39059.5 39024.9 38990.2 38955.5 38920.9 38886.1 38851.3 38816.3 38781.4 38746.5 38711.5 38676.4 38641.2 38606.1 38570.9 38535.6 38500.3 38464.9 38429.4 38394 38358.5 38322.9 38287.2 38251.5 38215.8 38180 38144.1 38108.2 38072.2 38036.2 38000.2 37964.1 37927.8 37891.6 37855.4 37819.1 37782.6 37746.2 37709.7 37673.1 37636.6 37599.9 37563.1 37526.3 37489.5 37452.7 37415.7 37378.7 37341.6 37304.6 37267.4 37230.2 37192.9 37155.5 37118.2 37080.8 37043.2 37005.6 36968 36930.4 36892.7 36854.8 36816.9 36779 36741.1 36703.1 36665 36626.8 36588.6 36550.4 36512.1 36473.7 36435.3 36396.8 36358.3 36319.7 36281 36242.2 36203.4 36164.6 36125.7 36086.7 36047.7 36008.6 35969.5 35930.3 35891 35851.7 35812.3 35772.8 35733.4 35693.8 35654.1 35614.4 35574.7 35534.9 35495 35455 35415 35375 35334.9 35294.7 35254.4 35214.1 35173.8 35133.4 35092.8 35052.3 35011.6 34971 34930.3 34889.4 34848.5 34807.6 34766.6 34725.6 34684.4 34643.2 34601.9 34560.6 34519.3 34477.8 34436.3 34394.7 34353.1 34311.4 34269.6 34227.7 34185.8 34143.9 34101.9 34059.8 34017.6 33975.4 33933.1 33890.8 33848.3 33805.8 33763.3 33720.6 33678 33635.2 33592.4 33549.5 33506.5 33463.6 33420.4 33377.3 33334.1 33290.8 33247.5 33204 33160.5 33116.9 33073.3 33029.7 32985.9 32942 32898.1 32854.2 32810.2 32766 32721.9 32677.6 32633.3 32589 32544.5 32500 32455.4 32410.8 32366.1 32321.2 32276.4 32231.5 32186.5 32141.4 32096.2 32051 32005.8 31960.4 31915 31869.5 31823.9 31778.3 31732.6 31686.9 31641 31595.1 31549.1 31503 31456.9 31410.7 31364.4 31318.1 31271.6 31225.2 31178.6 31131.9 31085.2 31038.5 30991.7 30944.7 30897.7 30850.6 30803.5 30756.3 30708.9 30661.6 30614.1 30566.6 30519.1 30471.4 30423.6 30375.8 30327.9 30280.1 30232 30183.9 30135.7 30087.4 30039.1 29990.7 29942.2 29893.6 29845 29796.4 29747.5 29698.6 29649.7 29600.7 29551.7 29502.4 29453.2 29403.8 29354.4 29305 29255.4 29205.8 29156.1 29106.3 29056.5 29006.5 28956.4 28906.3 28856.2 28806 28755.6 28705.2 28654.7 28604.1 28553.5 28502.7 28451.9 28401 28350 28299 28247.8 28196.6 28145.3 28093.9 28042.6 27990.9 27939.3 27887.6 27835.8 27784 27732 27679.9 27627.8 27575.6 27523.4 27471 27418.5 27366 27313.4 27260.7 27207.9 27155 27102 27049 26996 26942.7 26889.3 26836 26782.5 26729.1 26675.3 26621.6 26567.8 26513.9 26460 26405.9 26351.7 26297.5 26243.2 26188.9 26134.4 26079.8 26025.2 25970.5 25915.8 25860.8 25805.8 25750.8 25695.8 25640.7 25585.3 25530 25474.7 25419.3 25363.9 25308.2 25252.6 25197 25141.4 25085.7 25029.8 24974 24918.3 24862.6 24806.8 24750.9 24695.1 24639.4 24583.8 24528.1 24472.4 24417.1 24362 24306.9 24252.2 24197.5 24142.6 24087.6 24032.6 23977.2 23922.5 23873.8 23825.2 23776.6 23732.8 23683.6 23618.3 23552.8 23487.3 23412.8 23361.6 23331.2 23301.1 23271.4 23257 23252.9 23248.8 23244.7 23240.5 23239 23236.4 23231.2 23226 23220.7 23215.1 23188.1 23160.8 23133.4 23105.6 23062 22986.1 22917.1 22848.2 22779.3 22723 22671.9 22615.6 22559.2 22502.9 22440.2 22372.4 22304.4 22236.3 22168.1 22099.7 22028.4 21955.1 21881.9 21808.7 21733.3 21655.1 21575.3 21495.5 21415.7 21334.3 21250 21163.9 21077.7 20991.6 20903.6 20812.6 20719.7 20626.7 20533.7 20438.9 20340.8 20240.6 20140.3 20039.9 19937.6 19831.7 19723.5 19615.2 19506.8 19396.3 19282 19164.9 19047.7 18930.4 18810.6 18686.6 18559.8 18432.9 18305.9 18176.5 18042.4 17904.5 17766.3 17627.9 17486.1 17339.1 17189.4 17039.6 16889.6 16737.3 16579.5 16415 16250.1 16084.8 15913.4 15735.6 15557.5 15379.3 15201.2 15023.1 14838.4 14639 14438.6 14237.5 14022.3 13799 13585.9 13373.4 13161.5 12960.2 12751.3 12503.8 12254 12002.1 11712.8 11412.7 11157.3 10904.8 10655.1 10450.3 10237.7 9921.84 9598.26 9266.01 8833.32 8384.34 8071.45 7773.83 7494.38 7349.27 7198.24 6802.02 6357.56 5839.06 5089.69 4311.41 3778.88 3397.97 3250.98 3316.72 3383.02 3362.72 2777.17 1388.18 0