# vtk DataFile Version 2.0
track0
ASCII
DATASET POLYDATA
POINTS 12278 float
-0.0205 0.001 1e-05
-0.02052 0.000999216 1e-05
-0.02054 0.000998592 1e-05
-0.02056 0.000998126 1e-05
-0.02058 0.000997818 1e-05
-0.0206 0.000997665 1e-05
-0.0205 0.00367778 1e-05
-0.02052 0.00367703 1e-05
-0.02054 0.00367643 1e-05
-0.02056 0.00367599 1e-05
-0.02058 0.00367569 1e-05
-0.0206 0.00367554 1e-05
-0.0205 0.00635556 1e-05
-0.02052 0.00635527 1e-05
-0.02054 0.00635505 1e-05
-0.02056 0.00635488 1e-05
-0.02058 0.00635476 1e-05
-0.0206 0.00635471 1e-05
-0.0205 0.00903333 1e-05
-0.02052 0.00903311 1e-05
-0.02054 0.00903293 1e-05
-0.02056 0.0090328 1e-05
-0.02058 0.00903271 1e-05
-0.0206 0.00903266 1e-05
-0.0205 0.0117111 1e-05
-0.02052 0.0117111 1e-05
-0.02054 0.011711 1e-05
-0.02056 0.011711 1e-05
-0.02058 0.011711 1e-05
-0.0206 0.011711 1e-05
-0.0205 0.0143889 1e-05
-0.02052 0.014389 1e-05
-0.02054 0.014389 1e-05
-0.02056 0.0143891 1e-05
-0.02058 0.0143891 1e-05
-0.0206 0.0143891 1e-05
-0.0205 0.0170667 1e-05
-0.02052 0.017067 1e-05
-0.02054 0.0170672 1e-05
-0.02056 0.0170674 1e-05
-0.02058 0.0170675 1e-05
-0.0206 0.0170676 1e-05
-0.0205 0.0197444 1e-05
-0.02052 0.019745 1e-05
-0.02054 0.0197454 1e-05
-0.02056 0.0197457 1e-05
-0.02058 0.0197459 1e-05
-0.0206 0.019746 1e-05
-0.0205 0.0224222 1e-05
-0.02052 0.022423 1e-05
-0.02054 0.0224236 1e-05
-0.02056 0.0224241 1e-05
-0.02058 0.0224244 1e-05
-0.0206 0.0224245 1e-05
-0.0205 0.0251 1e-05
-0.02052 0.0251003 1e-05
-0.02054 0.0251005 1e-05
-0.02056 0.0251007 1e-05
-0.02058 0.0251008 1e-05
-0.0206 0.0251008 1e-05
-0.0205 0.001 1e-05
-0.0203632 0.00100536 1e-05
-0.0202266 0.00101331 1e-05
-0.0200901 0.00102296 1e-05
-0.0200427 0.00102682 1e-05
-0.0198376 0.00104418 1e-05
-0.0196338 0.00107322 1e-05
-0.0194327 0.00111734 1e-05
-0.0192368 0.00118024 1e-05
-0.0190172 0.00124951 1e-05
-0.0189002 0.00128348 1e-05
-0.0187827 0.00131598 1e-05
-0.0186649 0.001347 1e-05
-0.0185469 0.001377 1e-05
-0.0183807 0.00141936 1e-05
-0.0182041 0.00146458 1e-05
-0.0180267 0.00150692 1e-05
-0.0178487 0.0015464 1e-05
-0.0176703 0.00158389 1e-05
-0.0174976 0.0016199 1e-05
-0.0172846 0.00166394 1e-05
-0.0170715 0.00170741 1e-05
-0.0168583 0.00175029 1e-05
-0.0166449 0.00179219 1e-05
-0.0163945 0.00184007 1e-05
-0.0163234 0.00185324 1e-05
-0.0162522 0.00186629 1e-05
-0.016181 0.00187921 1e-05
-0.0161097 0.00189201 1e-05
-0.0160387 0.0019046 1e-05
-0.0157586 0.0019535 1e-05
-0.0154779 0.00199931 1e-05
-0.0151968 0.00204225 1e-05
-0.0149154 0.00208283 1e-05
-0.0146381 0.00212134 1e-05
-0.0143838 0.00215527 1e-05
-0.0141293 0.00218766 1e-05
-0.0138746 0.00221855 1e-05
-0.0136198 0.00224797 1e-05
-0.0132934 0.00228369 1e-05
-0.0132791 0.00228514 1e-05
-0.0132648 0.0022866 1e-05
-0.0132504 0.00228805 1e-05
-0.0132361 0.0022895 1e-05
-0.0132213 0.00229098 1e-05
-0.0129776 0.00231543 1e-05
-0.0127337 0.00233865 1e-05
-0.0124897 0.00236061 1e-05
-0.0122456 0.00238129 1e-05
-0.0120025 0.00240058 1e-05
-0.0117547 0.00241909 1e-05
-0.0115067 0.00243627 1e-05
-0.0112587 0.00245231 1e-05
-0.0110106 0.00246734 1e-05
-0.0107632 0.00248135 1e-05
-0.0105252 0.00249391 1e-05
-0.0102872 0.00250547 1e-05
-0.0100491 0.00251602 1e-05
-0.00981105 0.00252575 1e-05
-0.00957337 0.00253471 1e-05
-0.00934491 0.00254261 1e-05
-0.00911643 0.00254974 1e-05
-0.00888792 0.00255611 1e-05
-0.0086594 0.00256172 1e-05
-0.00843108 0.00256669 1e-05
-0.00821175 0.00257085 1e-05
-0.00799241 0.00257439 1e-05
-0.00777306 0.00257731 1e-05
-0.0075537 0.00257953 1e-05
-0.00733443 0.00258115 1e-05
-0.00712387 0.00258213 1e-05
-0.0069133 0.00258257 1e-05
-0.00670273 0.00258244 1e-05
-0.00649216 0.00258163 1e-05
-0.0062816 0.00258019 1e-05
-0.00607944 0.00257821 1e-05
-0.0058773 0.00257567 1e-05
-0.00567516 0.00257259 1e-05
-0.00547303 0.00256877 1e-05
-0.00527083 0.00256422 1e-05
-0.00507675 0.00255915 1e-05
-0.00488269 0.00255346 1e-05
-0.00468865 0.00254714 1e-05
-0.00449464 0.00254001 1e-05
-0.00430044 0.00253194 1e-05
-0.00411412 0.00252333 1e-05
-0.00392784 0.00251392 1e-05
-0.00374159 0.00250373 1e-05
-0.0035554 0.0024926 1e-05
-0.00336883 0.00248021 1e-05
-0.00318995 0.00246717 1e-05
-0.00301115 0.00245306 1e-05
-0.00283245 0.00243781 1e-05
-0.00265386 0.00242128 1e-05
-0.00247443 0.00240321 1e-05
-0.0023027 0.00238433 1e-05
-0.00213114 0.00236392 1e-05
-0.00195982 0.00234162 1e-05
-0.00178875 0.00231747 1e-05
-0.00161577 0.00229115 1e-05
-0.00161556 0.00229111 1e-05
-0.00161535 0.00229108 1e-05
-0.00161514 0.00229105 1e-05
-0.00161493 0.00229101 1e-05
-0.00161472 0.00229098 1e-05
-0.00145006 0.00226409 1e-05
-0.0012858 0.00223484 1e-05
-0.00112197 0.00220331 1e-05
-0.000958578 0.00216954 1e-05
-0.000791418 0.00213247 1e-05
-0.000633135 0.00209437 1e-05
-0.000475556 0.00205344 1e-05
-0.000318719 0.00200976 1e-05
-0.000162833 0.0019628 1e-05
0 0.00190965 1e-05
3.74187e-05 0.00189643 1e-05
7.47369e-05 0.00188292 1e-05
0.000111956 0.00186914 1e-05
0.000149078 0.00185511 1e-05
0.000179437 0.00184338 1e-05
0.000249227 0.00181597 1e-05
0.000318607 0.00178754 1e-05
0.000387563 0.00175809 1e-05
0.00045608 0.00172763 1e-05
0.000528387 0.00169429 1e-05
0.000634886 0.00164332 1e-05
0.000740278 0.0015901 1e-05
0.00084451 0.00153464 1e-05
0.000947621 0.00147712 1e-05
0.0010202 0.00143469 1e-05
0.00102834 0.00142977 1e-05
0.00103647 0.00142484 1e-05
0.00104458 0.00141989 1e-05
0.00105269 0.00141493 1e-05
0.00106088 0.0014099 1e-05
0.00116821 0.00134372 1e-05
0.00127404 0.00127517 1e-05
0.00137827 0.00120423 1e-05
0.00148099 0.00113111 1e-05
0.00159702 0.00104511 1e-05
0.00159712 0.00104503 1e-05
0.00159722 0.00104496 1e-05
0.00159732 0.00104488 1e-05
0.00159742 0.0010448 1e-05
0.00159752 0.00104473 1e-05
0.00169226 0.000971105 1e-05
0.0017856 0.000895716 1e-05
0.00187746 0.000818526 1e-05
0.0019679 0.000739678 1e-05
0.00203833 0.00067637 1e-05
0.00205833 0.000657941 1e-05
0.00207825 0.000639423 1e-05
0.00209808 0.000620816 1e-05
0.00211786 0.000602147 1e-05
0.00213833 0.0005827 1e-05
0.00219153 0.000531819 1e-05
0.00224424 0.00048042 1e-05
0.00229643 0.000428494 1e-05
0.00234809 0.000376037 1e-05
0.00239444 0.000328256 1e-05
0.00245222 0.000267866 1e-05
0.00250937 0.000206876 1e-05
0.00256589 0.000145305 1e-05
0.0026219 8.32691e-05 1e-05
0.00268334 1.40363e-05 1e-05
0.00268578 1.12291e-05 1e-05
0.00268822 8.42072e-06 1e-05
0.00269066 5.61131e-06 1e-05
0.0026931 2.80083e-06 1e-05
0.00269553 0 1e-05
0.00275943 -7.3737e-05 1e-05
0.00282271 -0.000148006 1e-05
0.00288535 -0.000222814 1e-05
0.00294732 -0.000298175 1e-05
0.00300439 -0.000368655 1e-05
0.00305003 -0.000425853 1e-05
0.00309536 -0.000483297 1e-05
0.00314038 -0.000540982 1e-05
0.00318516 -0.000598861 1e-05
0.00323259 -0.000660743 1e-05
0.0032507 -0.000684614 1e-05
0.00326876 -0.000708524 1e-05
0.00328677 -0.000732475 1e-05
0.00330472 -0.000756466 1e-05
0.00332232 -0.000780091 1e-05
0.00339046 -0.000871879 1e-05
0.003458 -0.000964109 1e-05
0.00352492 -0.00105679 1e-05
0.00359129 -0.00114987 1e-05
0.00365415 -0.00123896 1e-05
0.00368054 -0.00127677 1e-05
0.00370686 -0.00131463 1e-05
0.0037331 -0.00135254 1e-05
0.00375929 -0.00139049 1e-05
0.00378611 -0.00142947 1e-05
0.00383015 -0.00149367 1e-05
0.00387397 -0.00155801 1e-05
0.00391757 -0.00162251 1e-05
0.00396095 -0.00168716 1e-05
0.00400315 -0.00175044 1e-05
0.00407131 -0.0018532 1e-05
0.00413905 -0.00195624 1e-05
0.00420636 -0.00205956 1e-05
0.00427339 -0.00216307 1e-05
0.00434393 -0.00227267 1e-05
0.00435002 -0.0022822 1e-05
0.00435611 -0.00229173 1e-05
0.00436219 -0.00230126 1e-05
0.00436827 -0.00231079 1e-05
0.00437433 -0.0023203 1e-05
0.00445516 -0.00244725 1e-05
0.00453554 -0.00257449 1e-05
0.00461552 -0.00270197 1e-05
0.00469515 -0.00282968 1e-05
0.004773 -0.00295498 1e-05
0.00479962 -0.00299797 1e-05
0.00482621 -0.00304097 1e-05
0.00485278 -0.003084 1e-05
0.00487933 -0.00312702 1e-05
0.00490609 -0.00317037 1e-05
0.00496673 -0.00326862 1e-05
0.00502721 -0.00336697 1e-05
0.00508755 -0.0034654 1e-05
0.00514775 -0.00356392 1e-05
0.0052074 -0.00366161 1e-05
0.00526045 -0.00374854 1e-05
0.00531345 -0.0038355 1e-05
0.00536641 -0.00392248 1e-05
0.0054194 -0.00400945 1e-05
0.00547262 -0.00409669 1e-05
0.00551556 -0.00416697 1e-05
0.00555847 -0.00423728 1e-05
0.00560134 -0.00430761 1e-05
0.0056442 -0.00437794 1e-05
0.00568699 -0.00444811 1e-05
0.0057583 -0.00456496 1e-05
0.00582966 -0.00468178 1e-05
0.00590107 -0.00479857 1e-05
0.00597261 -0.00491527 1e-05
0.00604356 -0.00503055 1e-05
0.00607973 -0.00508909 1e-05
0.00611591 -0.00514762 1e-05
0.0061521 -0.00520616 1e-05
0.00618831 -0.00526467 1e-05
0.00622463 -0.00532325 1e-05
0.00630349 -0.00545021 1e-05
0.00638254 -0.00557706 1e-05
0.00646179 -0.00570378 1e-05
0.00654131 -0.00583033 1e-05
0.00661893 -0.00595305 1e-05
0.00666268 -0.00602178 1e-05
0.00670649 -0.00609047 1e-05
0.00675035 -0.00615913 1e-05
0.00679429 -0.00622774 1e-05
0.00683861 -0.0062967 1e-05
0.00691064 -0.0064084 1e-05
0.00698293 -0.00651994 1e-05
0.00705548 -0.00663131 1e-05
0.00712832 -0.00674249 1e-05
0.00719878 -0.00684923 1e-05
0.00726924 -0.00695518 1e-05
0.00733991 -0.007061 1e-05
0.00741082 -0.00716666 1e-05
0.00748203 -0.00727211 1e-05
0.00755475 -0.00737907 1e-05
0.00760043 -0.00744576 1e-05
0.00764623 -0.00751237 1e-05
0.00769217 -0.00757888 1e-05
0.00773824 -0.00764531 1e-05
0.00778313 -0.0077097 1e-05
0.00790091 -0.00787776 1e-05
0.00801946 -0.00804528 1e-05
0.00813878 -0.00821224 1e-05
0.0082591 -0.00837848 1e-05
0.00837203 -0.00853246 1e-05
0.00837938 -0.00854234 1e-05
0.00838673 -0.00855222 1e-05
0.00839408 -0.0085621 1e-05
0.00840143 -0.00857197 1e-05
0.00840881 -0.00858187 1e-05
0.00852015 -0.00873109 1e-05
0.00863232 -0.0088797 1e-05
0.00874534 -0.00902766 1e-05
0.00885923 -0.00917495 1e-05
0.00896551 -0.00931052 1e-05
0.00902965 -0.00939127 1e-05
0.00909404 -0.00947182 1e-05
0.0091587 -0.00955216 1e-05
0.00922366 -0.00963226 1e-05
0.00929076 -0.00971435 1e-05
0.00934533 -0.0097806 1e-05
0.00940009 -0.00984667 1e-05
0.00945506 -0.00991258 1e-05
0.00951023 -0.00997833 1e-05
0.0095636 -0.0100415 1e-05
[...]
POINT_DATA 12278
 FIELD attributes 1
U 3 12278 float
9.72339 	0.381311 	0 9.77871 	0.305049 	0 9.83405 	0.228765 	0 9.8894 	0.152465 	0 9.94476 	0.0761532 	0 10 	0 	0
10.0671 	0.375483 	0 10.0537 	0.300386 	0 10.0403 	0.225271 	0 10.0268 	0.150141 	0 10.0134 	0.0750008 	0 10 	0 	0
10.0364 	0.141571 	0 10.0291 	0.113304 	0 10.0218 	0.0850887 	0 10.0145 	0.0569261 	0 10.0071 	0.0288163 	0 10 	0 	0
10.0137 	0.111518 	0 10.011 	0.0892145 	0 10.0082 	0.0669104 	0 10.0055 	0.0446059 	0 10.0027 	0.0223011 	0 10 	0 	0
10.0097 	0.0196528 	0 10.0078 	0.0157222 	0 10.0058 	0.0117917 	0 10.0039 	0.0078611 	0 10.0019 	0.00393054 	0 10 	0 	0
10.0102 	-0.0372881 	0 10.0082 	-0.0298305 	0 10.0061 	-0.0223728 	0 10.0041 	-0.0149152 	0 10.002 	-0.00745752 	0 10 	0 	0
10.0174 	-0.148997 	0 10.0139 	-0.119198 	0 10.0105 	-0.0893971 	0 10.007 	-0.0595955 	0 10.0035 	-0.0297934 	0 10 	0 	0
10.0362 	-0.265902 	0 10.029 	-0.212721 	0 10.0217 	-0.159534 	0 10.0145 	-0.106342 	0 10.0072 	-0.0531461 	0 10 	0 	0
10.0563 	-0.387167 	0 10.045 	-0.309734 	0 10.0338 	-0.23228 	0 10.0225 	-0.15481 	0 10.0112 	-0.0773282 	0 10 	0 	0
8.30133 	-0.114495 	0 8.4287 	-0.091596 	0 8.55659 	-0.0686962 	0 8.68498 	-0.0457957 	0 8.81385 	-0.0228949 	0 8.94315 	0 	0
9.72339 	0.381311 	0 9.5415 	0.555241 	0 9.39671 	0.66365 	0 9.26203 	0.754271 	0 9.2183 	0.780385 	0 8.95344 	1.27614 	0 8.70578 	1.91036 	0 8.48173 	2.72184 	0 8.46724 	2.67123 	0 8.47252 	2.45986 	0 8.50117 	2.35314 	0 8.52498 	2.2443 	0 8.51221 	2.1631 	0 8.42487 	2.14738 	0 8.30214 	2.12558 	0 8.30117 	1.9821 	0 8.28715 	1.83798 	0 8.21182 	1.72569 	0 8.035 	1.67507 	0 7.86306 	1.62575 	0 7.68323 	1.56759 	0 7.50178 	1.50875 	0 7.42793 	1.45839 	0 7.36148 	1.40771 	0 7.27865 	1.3467 	0 7.22249 	1.32375 	0 7.16614 	1.3007 	0 7.10958 	1.27753 	0 7.07929 	1.25439 	0 7.05291 	1.2312 	0 6.97394 	1.13838 	0 6.88842 	1.05226 	0 6.79883 	0.980326 	0 6.71192 	0.93208 	0 6.6228 	0.883655 	0 6.55089 	0.833771 	0 6.49229 	0.787583 	0 6.44246 	0.74385 	0 6.3887 	0.699085 	0 6.31694 	0.642264 	0 6.31477 	0.640169 	0 6.3132 	0.638343 	0 6.31172 	0.636556 	0 6.31023 	0.634767 	0 6.30868 	0.632927 	0 6.27132 	0.597058 	0 6.23151 	0.560861 	0 6.18922 	0.524331 	0 6.1444 	0.487463 	0 6.10943 	0.456254 	0 6.07602 	0.420972 	0 6.04571 	0.390998 	0 6.01701 	0.364555 	0 5.99443 	0.339606 	0 5.97315 	0.315202 	0 5.95245 	0.28907 	0 5.92972 	0.262727 	0 5.91347 	0.241668 	0 5.90339 	0.222665 	0 5.89181 	0.2036 	0 5.87916 	0.183534 	0 5.86497 	0.163369 	0 5.85625 	0.143806 	0 5.85335 	0.12742 	0 5.84917 	0.111006 	0 5.84294 	0.094373 	0 5.83547 	0.0776983 	0 5.83338 	0.0589982 	0 5.83628 	0.043127 	0 5.83797 	0.0272563 	0 5.83713 	0.0119607 	0 5.83531 	-0.00340441 	0 5.83917 	-0.0225025 	0 5.84727 	-0.0399907 	0 5.85419 	-0.0574246 	0 5.85855 	-0.0734889 	0 5.86179 	-0.0895273 	0 5.87115 	-0.110912 	0 5.88461 	-0.132446 	0 5.89657 	-0.153908 	0 5.90642 	-0.173271 	0 5.91499 	-0.192564 	0 5.9293 	-0.21802 	0 5.94818 	-0.24697 	0 5.96517 	-0.27578 	0 5.9811 	-0.302008 	0 5.99539 	-0.328086 	0 6.01442 	-0.359698 	0 6.03852 	-0.400853 	0 6.06011 	-0.441766 	0 6.08244 	-0.480223 	0 6.10463 	-0.520833 	0 6.12992 	-0.567481 	0 6.1544 	-0.619554 	0 6.17852 	-0.679353 	0 6.20588 	-0.738328 	0 6.23721 	-0.811706 	0 6.26468 	-0.884548 	0 6.28831 	-0.956853 	0 6.30842 	-1.02957 	0 6.30845 	-1.02968 	0 6.30849 	-1.02982 	0 6.30852 	-1.02996 	0 6.30856 	-1.0301 	0 6.3086 	-1.03024 	0 6.33234 	-1.12733 	0 6.35084 	-1.22232 	0 6.36422 	-1.31525 	0 6.37495 	-1.41385 	0 6.3882 	-1.53794 	0 6.40599 	-1.66366 	0 6.41753 	-1.7873 	0 6.40542 	-1.92976 	2.61774e-20 6.36901 	-2.0787 	5.36601e-20 6.31886 	-2.23345 	8.11614e-20 6.31063 	-2.284 	2.31804e-20 6.29841 	-2.33143 	5.60193e-21 6.28201 	-2.37553 	3.1087e-20 6.26505 	-2.41938 	5.71952e-20 6.25068 	-2.45512 	7.91137e-20 6.22431 	-2.55086 	1.78795e-19 6.19599 	-2.64604 	2.82629e-19 6.16573 	-2.74063 	3.90589e-19 6.11962 	-2.82168 	2.74053e-19 6.06314 	-2.90191 	6.24275e-20 5.98319 	-3.02155 	4.92066e-20 5.89804 	-3.13825 	3.61396e-20 5.80119 	-3.23608 	8.51816e-21 5.69993 	-3.33197 	-1.81036e-20 5.62468 	-3.39883 	-3.63302e-20 5.61561 	-3.40805 	-3.61239e-20 5.60651 	-3.41726 	-3.5903e-20 5.59734 	-3.42583 	-3.70439e-20 5.58804 	-3.43272 	-4.18094e-20 5.57859 	-3.43968 	-4.66198e-20 5.45872 	-3.53588 	-2.83517e-20 5.33352 	-3.63011 	-9.51061e-21 5.20749 	-3.7071 	9.63037e-23 5.08127 	-3.76593 	-2.53673e-22 4.93186 	-3.83149 	4.31238e-23 4.93171 	-3.83157 	2.46776e-23 4.93156 	-3.83165 	6.23122e-24 4.93143 	-3.83171 	1.0939e-23 4.9313 	-3.83176 	2.74582e-23 4.93117 	-3.8318 	4.39805e-23 4.80537 	-3.88118 	1.09715e-21 4.67547 	-3.92896 	2.4553e-21 4.54846 	-3.96549 	4.18429e-21 4.43073 	-3.9826 	6.31113e-21 4.33535 	-3.99498 	8.18314e-21 4.30514 	-4.00261 	1.33109e-20 4.2747 	-4.01016 	1.84764e-20 4.24949 	-4.01187 	9.1903e-21 4.22442 	-4.01323 	-8.22914e-22 4.19823 	-4.01458 	-1.12034e-20 4.12432 	-4.02191 	-6.36663e-20 4.04922 	-4.02871 	-1.1576e-19 3.97309 	-4.03483 	-1.66013e-19 3.90883 	-4.02929 	-1.01665e-19 3.84994 	-4.02391 	-4.30565e-20 3.77248 	-4.02606 	4.10973e-21 3.69511 	-4.02532 	4.18829e-20 3.62333 	-4.01323 	3.40931e-20 3.55047 	-4.00066 	2.65734e-20 3.46856 	-3.98621 	1.85547e-20 3.46511 	-3.98578 	1.92009e-20 3.46166 	-3.98534 	1.98473e-20 3.45821 	-3.98491 	2.04938e-20 3.45495 	-3.98417 	2.10363e-20 3.45179 	-3.9833 	2.1536e-20 3.38369 	-3.97134 	1.41125e-20 3.31349 	-3.95719 	7.40316e-21 3.24209 	-3.94234 	6.88454e-22 3.17031 	-3.91527 	6.18425e-21 3.10267 	-3.88851 	1.23685e-20 3.06066 	-3.87852 	3.47076e-20 3.01833 	-3.86716 	5.05831e-20 2.9768 	-3.84823 	2.3361e-20 2.93487 	-3.82909 	-3.8044e-21 2.88975 	-3.80844 	-3.26866e-20 2.87154 	-3.80186 	-3.88184e-20 2.85326 	-3.79523 	-4.49524e-20 2.83489 	-3.78855 	-5.10886e-20 2.81662 	-3.77945 	-5.73107e-20 2.79861 	-3.7699 	-6.34505e-20 2.74521 	-3.74885 	-1.07183e-19 2.69098 	-3.72731 	-1.51036e-19 2.63619 	-3.6967 	-1.46189e-19 2.58177 	-3.65933 	-8.8173e-20 2.52924 	-3.62324 	-3.26863e-20 2.51236 	-3.61435 	1.99567e-21 2.49543 	-3.60525 	3.50752e-20 2.4796 	-3.5929 	2.98353e-20 2.46371 	-3.5805 	2.46304e-20 2.44733 	-3.56773 	1.93257e-20 2.41674 	-3.54862 	5.65051e-20 2.38589 	-3.52932 	9.36046e-20 2.35478 	-3.50983 	1.30622e-19 2.32474 	-3.48529 	1.03488e-19 2.29529 	-3.46082 	7.22839e-20 2.25838 	-3.43516 	4.24548e-20 2.22102 	-3.40919 	1.25933e-20 2.18648 	-3.37637 	-2.86034e-21 2.1517 	-3.34321 	-1.80553e-20 2.11459 	-3.30793 	-3.41495e-20 2.11085 	-3.30505 	-3.1704e-20 2.1071 	-3.30216 	-2.92614e-20 2.10335 	-3.29927 	-2.68217e-20 2.09982 	-3.29581 	-3.39364e-20 2.0963 	-3.29234 	-4.13524e-20 2.05956 	-3.26009 	-1.64885e-19 2.02383 	-3.22577 	-2.56871e-19 1.98877 	-3.18967 	-2.99699e-19 1.95653 	-3.1488 	-1.93345e-19 1.92476 	-3.10859 	-8.89982e-20 1.91616 	-3.09893 	-7.79175e-20 1.90754 	-3.08924 	-6.68326e-20 1.90021 	-3.07842 	-5.65711e-20 1.89318 	-3.06733 	-4.64998e-20 1.88609 	-3.05615 	-3.63526e-20 1.86415 	-3.03077 	-1.17982e-20 1.84209 	-3.00529 	1.27776e-20 1.82048 	-2.97913 	2.99805e-20 1.80143 	-2.95015 	1.21402e-20 1.78252 	-2.9214 	-5.53576e-21 1.76912 	-2.90244 	-2.11533e-20 1.75569 	-2.88346 	-3.67589e-20 1.74445 	-2.86318 	-1.81e-20 1.73413 	-2.84238 	1.47392e-20 1.72382 	-2.82154 	4.76871e-20 1.71149 	-2.80436 	1.2209e-20 1.69914 	-2.78715 	-2.32184e-20 1.68743 	-2.76947 	-3.48582e-20 1.67734 	-2.75063 	1.30258e-20 1.6673 	-2.73185 	6.07777e-20 1.65395 	-2.70763 	1.97686e-19 1.64063 	-2.68345 	3.34534e-19 1.62969 	-2.65849 	2.96579e-19 1.62052 	-2.63304 	1.33753e-19 1.61159 	-2.60799 	-2.77755e-20 1.60379 	-2.59465 	-5.72655e-20 1.596 	-2.58132 	-8.67632e-20 1.58902 	-2.56765 	-8.96313e-20 1.58314 	-2.55351 	-5.61805e-20 1.57729 	-2.53938 	-2.27037e-20 1.56727 	-2.51484 	-2.4562e-20 1.55737 	-2.49038 	-2.64601e-20 1.54941 	-2.4658 	-1.92363e-20 1.54395 	-2.44108 	-3.73737e-22 1.53887 	-2.41723 	1.79074e-20 1.53224 	-2.40279 	2.98488e-20 1.52563 	-2.38837 	4.17855e-20 1.52034 	-2.37373 	4.58173e-20 1.51599 	-2.35894 	4.42019e-20 1.51168 	-2.34412 	4.25568e-20 1.50642 	-2.32433 	2.56376e-20 1.50129 	-2.30466 	8.69268e-21 1.49724 	-2.28519 	-3.1165e-21 1.49588 	-2.2661 	-1.09909e-21 1.49477 	-2.24789 	8.38827e-22 1.48782 	-2.22743 	7.60385e-20 1.48097 	-2.20707 	1.51464e-19 1.47671 	-2.18687 	1.2548e-19 1.47338 	-2.16682 	6.76515e-20 1.47016 	-2.1466 	9.00245e-21 1.46895 	-2.13599 	-2.35578e-20 1.46779 	-2.12544 	-5.6074e-20 1.4669 	-2.11505 	-8.24982e-20 1.46843 	-2.10611 	-3.67277e-20 1.47 	-2.09749 	7.88211e-21 1.46287 	-2.06726 	4.60449e-21 1.45604 	-2.03732 	1.30909e-21 1.4553 	-2.01075 	-2.36028e-20 1.45587 	-1.98503 	-5.18888e-20 1.4584 	-1.96202 	-7.51793e-20 1.45795 	-1.96015 	-6.91366e-20 1.4575 	-1.95828 	-6.3139e-20 1.45745 	-1.9566 	-6.76658e-20 1.4574 	-1.95493 	-7.21904e-20 1.45736 	-1.95326 	-7.67245e-20 1.45547 	-1.92823 	-2.10308e-19 1.45395 	-1.9035 	-3.43153e-19 1.45318 	-1.87936 	-4.48012e-19 1.45744 	-1.85905 	-1.91732e-19 1.46182 	-1.84061 	4.73002e-20 1.45969 	-1.82581 	1.10923e-19 1.45767 	-1.8111 	1.74384e-19 1.45858 	-1.7985 	1.41901e-19 1.45962 	-1.78601 	1.09516e-19 1.46082 	-1.77326 	7.63242e-20 1.46175 	-1.7636 	6.73097e-20 1.46277 	-1.754 	5.83175e-20 1.46387 	-1.74448 	4.9348e-20 1.4665 	-1.73621 	5.14477e-20 1.46919 	-1.72837 	5.39843e-20 1.46869 	-1.70509 	2.92873e-20 1.46854 	-1.6821 	4.52845e-21 1.47149 	-1.66155 	2.0462e-20 1.47603 	-1.64204 	4.55552e-20 1.48198 	-1.62492 	6.87898e-20 1.48196 	-1.62097 	6.77043e-20 1.48204 	-1.61708 	6.78611e-20 1.48262 	-1.61357 	7.52017e-20 1.4832 	-1.61006 	8.25404e-20 1.48381 	-1.60652 	8.99623e-20 1.48653 	-1.59066 	1.39684e-19 1.48953 	-1.575 	1.89281e-19 1.49279 	-1.55955 	2.38751e-19 1.49801 	-1.54595 	1.68584e-19 1.50346 	-1.53368 	8.17694e-20 1.50512 	-1.5143 	1.54677e-19 1.50762 	-1.49565 	2.02508e-19 1.51222 	-1.47891 	1.60894e-19 1.51716 	-1.46244 	1.19804e-19 1.52283 	-1.44504 	7.62773e-20 1.52289 	-1.44488 	7.56792e-20 1.52295 	-1.44472 	7.50812e-20 1.52301 	-1.44455 	7.44832e-20 1.52308 	-1.44441 	7.5279e-20 1.52316 	-1.44427 	7.66829e-20 1.52751 	-1.4272 	1.28106e-19 1.53234 	-1.41044 	1.76162e-19 1.53753 	-1.39394 	2.23826e-19 1.54433 	-1.37924 	1.84525e-19 1.55144 	-1.3663 	1.17393e-19 1.55479 	-1.34869 	2.0343e-19 1.55903 	-1.33199 	2.38152e-19 1.56469 	-1.31684 	1.73399e-19 1.57069 	-1.30193 	1.08861e-19 1.577 	-1.28835 	3.79638e-20 1.5772 	-1.28748 	3.77436e-20 1.57744 	-1.28666 	3.70172e-20 1.57772 	-1.28588 	3.56525e-20 1.578 	-1.28511 	3.42875e-20 1.57828 	-1.28433 	3.29156e-20 1.58355 	-1.27026 	-1.29654e-20 1.58911 	-1.25639 	-5.8766e-20 1.59499 	-1.24272 	-1.04483e-19 1.60175 	-1.23026 	-8.94015e-20 1.60887 	-1.21944 	-2.96552e-20 1.61334 	-1.20392 	-7.5046e-20 1.61812 	-1.1886 	-1.20851e-19 1.62422 	-1.17524 	-1.02615e-19 1.63149 	-1.16255 	-6.09377e-20 1.63953 	-1.15117 	3.31257e-22 1.64178 	-1.14446 	2.82758e-20 1.64435 	-1.13825 	2.77659e-20 1.64717 	-1.13239 	6.99217e-21 1.65004 	-1.12658 	-1.37326e-20 1.65312 	-1.12052 	-3.54229e-20 1.65682 	-1.11357 	-6.78637e-20 1.66061 	-1.10669 	-1.00189e-19 1.6645 	-1.09985 	-1.32399e-19 1.66861 	-1.09346 	-1.31909e-19 1.67292 	-1.08789 	-7.98888e-20 1.67808 	-1.07415 	-1.11929e-19 1.68409 	-1.06087 	-1.36655e-19 1.69144 	-1.04848 	-1.45832e-19 1.69964 	-1.03786 	-1.355e-19 1.70774 	-1.02789 	-1.25509e-19 1.71353 	-1.01438 	-2.75824e-19 1.71982 	-1.0017 	-3.48202e-19 1.72672 	-0.990254 	-2.9414e-19 1.73388 	-0.978971 	-2.40587e-19 1.74216 	-0.968873 	-1.16203e-19 1.7442 	-0.964658 	-8.36279e-20 1.74639 	-0.960881 	-8.57942e-20 1.74864 	-0.957234 	-9.73219e-20 1.75091 	-0.953602 	-1.08804e-19 1.75331 	-0.949836 	-1.2072e-19 1.75825 	-0.942365 	-1.24383e-19 1.7633 	-0.934962 	-1.28018e-19 1.76848 	-0.927629 	-1.31625e-19 1.77381 	-0.920591 	-1.29778e-19 1.77923 	-0.914739 	-1.0504e-19 1.78529 	-0.902806 	-1.32655e-19 1.79233 	-0.891431 	-1.45156e-19 1.80029 	-0.880575 	-1.43925e-19 1.80861 	-0.871524 	-1.02865e-19 1.8169 	-0.862991 	-6.08366e-20 1.82353 	-0.851298 	-1.64807e-19 1.83043 	-0.83979 	-2.65298e-19 1.8376 	-0.830095 	-2.23996e-19 1.8458 	-0.820974 	-1.27954e-19 1.85449 	-0.812526 	4.6862e-23 1.86105 	-0.802084 	1.44056e-22 1.86776 	-0.793256 	1.09768e-22 1.87466 	-0.784567 	7.15673e-23 1.88175 	-0.775977 	3.29473e-23 1.89002 	-0.766319 	-1.14481e-23 1.89049 	-0.765807 	8.79693e-22 1.89096 	-0.765295 	1.77011e-21 1.89142 	-0.764783 	2.65982e-21 1.89189 	-0.764272 	3.5488e-21 1.89234 	-0.763862 	5.26226e-22 1.89982 	-0.754393 	-2.60046e-20 1.90762 	-0.745109 	-4.78679e-20 1.91564 	-0.735936 	-6.95527e-20 1.92388 	-0.726902 	-8.97933e-20 1.93179 	-0.719913 	-3.11046e-20 1.93869 	-0.709957 	-2.10343e-20 1.94626 	-0.700429 	-1.3738e-20 1.95465 	-0.691445 	-1.02268e-20 1.96282 	-0.684189 	-1.58928e-20 1.97097 	-0.67732 	-2.23597e-20 1.97829 	-0.667614 	5.40377e-20 1.98584 	-0.658009 	1.30547e-19 1.99326 	-0.649928 	1.3237e-19 2.00157 	-0.642981 	6.57274e-20 2.00992 	-0.636238 	1.61844e-22 2.01764 	-0.626786 	9.57106e-23 2.02517 	-0.618425 	-1.13532e-20 2.0326 	-0.610884 	-3.11983e-20 2.04021 	-0.603423 	-5.10197e-20 2.04867 	-0.596775 	-6.41313e-20 2.05551 	-0.589163 	-1.06174e-19 2.06196 	-0.58273 	-1.0969e-19 2.06855 	-0.576354 	-1.13264e-19 2.07527 	-0.570033 	-1.16896e-19 2.08313 	-0.562847 	-1.21127e-19 2.08398 	-0.562102 	-1.22451e-19 2.08483 	-0.561359 	-1.23775e-19 2.08569 	-0.560616 	-1.25098e-19 2.08655 	-0.559873 	-1.2642e-19 2.08733 	-0.559271 	-1.21937e-19 2.09479 	-0.551963 	-9.4114e-20 2.10249 	-0.544806 	-6.48712e-20 2.11036 	-0.537718 	-3.56664e-20 2.11841 	-0.530699 	-6.49965e-21 2.12567 	-0.525222 	1.7917e-22 2.13283 	-0.517458 	6.74918e-20 2.14066 	-0.51047 	8.6883e-20 2.14867 	-0.503578 	1.04016e-19 2.15632 	-0.497515 	8.42073e-20 2.16333 	-0.492597 	1.47756e-20 2.17073 	-0.485076 	-5.51681e-20 2.17834 	-0.477697 	-1.19318e-19 2.18641 	-0.471069 	-1.35011e-19 2.19332 	-0.466205 	-6.72752e-20 2.2003 	-0.461425 	-7.19413e-23 2.20789 	-0.454146 	-3.90512e-23 2.21566 	-0.446926 	-6.3334e-24 2.22277 	-0.441069 	0 2.22961 	-0.436352 	0 2.23651 	-0.43171 	0 2.24427 	-0.424673 	0 2.25194 	-0.417966 	0 2.25844 	-0.412733 	0 2.26514 	-0.407954 	-1.0045e-20 2.27194 	-0.40345 	-2.50698e-20 2.27983 	-0.396653 	-6.13439e-21 2.28674 	-0.391026 	-6.4027e-21 2.29324 	-0.385977 	-1.58685e-20 2.29986 	-0.380989 	-2.65987e-20 2.30653 	-0.376623 	-6.6346e-20 2.31423 	-0.37032 	-2.85715e-20 2.32058 	-0.36542 	-3.03594e-20 2.32705 	-0.360554 	-3.21192e-20 2.33364 	-0.355721 	-3.3851e-20 2.34023 	-0.351202 	-4.64305e-20 2.34641 	-0.346395 	-3.69862e-20 2.35196 	-0.342227 	-3.84201e-20 2.3576 	-0.338082 	-3.9833e-20 2.36333 	-0.333962 	-4.12251e-20 2.37009 	-0.329202 	-4.28181e-20 2.37068 	-0.328798 	-4.2684e-20 2.37127 	-0.328395 	-4.25501e-20 2.37186 	-0.327992 	-4.24163e-20 2.37246 	-0.32759 	-4.22828e-20 2.37298 	-0.327248 	-4.24841e-20 2.37914 	-0.322657 	-4.9448e-20 2.3854 	-0.318123 	-5.39932e-20 2.39178 	-0.313617 	-5.84614e-20 2.39826 	-0.309138 	-6.28531e-20 2.40388 	-0.305419 	-3.89332e-20 2.41022 	-0.300702 	-7.53459e-20 2.41638 	-0.296344 	-8.74765e-20 2.42265 	-0.292011 	-9.95484e-20 2.42902 	-0.287703 	-1.11562e-19 2.43365 	-0.284724 	-7.12453e-20 2.44023 	-0.279939 	-1.18722e-19 2.44627 	-0.275755 	-1.21246e-19 2.45241 	-0.271593 	-1.23724e-19 2.45829 	-0.267695 	-1.18979e-19 2.46226 	-0.265133 	-7.53217e-20 2.46887 	-0.260518 	-1.17854e-19 2.47504 	-0.256313 	-1.28165e-19 2.48104 	-0.25232 	-1.22557e-19 2.48597 	-0.249065 	-9.48072e-20 2.4897 	-0.246608 	-4.32021e-20 2.49629 	-0.242197 	4.31609e-20 2.50268 	-0.237978 	1.04121e-19 2.50852 	-0.234151 	1.09612e-19 2.51249 	-0.231468 	5.03968e-20 2.51597 	-0.229114 	-2.66747e-20 2.52251 	-0.224902 	-1.75712e-20 2.52916 	-0.22071 	-8.47757e-21 2.53467 	-0.21713 	8.66962e-21 2.53785 	-0.214864 	2.5959e-20 2.54108 	-0.212612 	4.32234e-20 2.54756 	-0.208596 	-4.33264e-20 2.55414 	-0.204596 	-1.29889e-19 2.55912 	-0.201379 	-1.41213e-19 2.56204 	-0.199214 	-7.10483e-20 2.565 	-0.19706 	-9.81776e-22 2.57141 	-0.193235 	-6.90637e-23 2.57791 	-0.189426 	8.22867e-22 2.58242 	-0.186544 	-1.56356e-20 2.58507 	-0.184477 	-4.93852e-20 2.58777 	-0.18242 	-8.31098e-20 2.59409 	-0.178783 	-4.76528e-20 2.6005 	-0.175158 	-1.22115e-20 2.60457 	-0.172585 	-8.54731e-21 2.60695 	-0.170615 	-2.5932e-20 2.60939 	-0.168653 	-4.33009e-20 2.6156 	-0.165198 	-2.59892e-20 2.6219 	-0.161758 	-8.73932e-21 2.62551 	-0.159483 	-9.48304e-21 2.6277 	-0.157588 	-2.60553e-20 2.62987 	-0.155719 	-4.33818e-20 2.63598 	-0.152441 	-1.64896e-19 2.64162 	-0.14939 	-2.61633e-19 2.64506 	-0.147234 	-2.56947e-19 2.64733 	-0.145357 	-1.64758e-19 2.64922 	-0.143578 	-4.3362e-20 2.65522 	-0.140474 	-2.5983e-20 2.66022 	-0.13777 	-8.62159e-21 2.6635 	-0.135728 	8.70944e-21 2.66585 	-0.133884 	2.13195e-20 2.66748 	-0.132193 	3.02618e-20 2.67335 	-0.129258 	9.13336e-20 2.67774 	-0.126863 	1.18643e-19 2.68085 	-0.124933 	1.1697e-19 2.68329 	-0.123133 	9.21246e-20 2.68467 	-0.121528 	3.16844e-20 2.69041 	-0.118756 	2.32417e-20 2.69421 	-0.116637 	1.48152e-20 2.69715 	-0.114815 	6.39377e-21 2.69969 	-0.113068 	0 2.7008 	-0.111548 	0 2.70641 	-0.108934 	0 2.70965 	-0.107058 	1.4734e-20 2.71243 	-0.105341 	3.2565e-20 2.71506 	-0.103655 	5.03809e-20 2.71592 	-0.102217 	6.81235e-20 2.7214 	-0.0997562 	1.90127e-19 2.72411 	-0.0980964 	1.93561e-19 2.72673 	-0.0964802 	1.91036e-19 2.72939 	-0.0948671 	1.88561e-19 2.73006 	-0.0935021 	7.02284e-20 2.7352 	-0.091242 	5.3213e-20 2.73761 	-0.0897204 	3.62507e-20 2.74006 	-0.0882016 	1.92803e-20 2.74256 	-0.0866856 	2.30168e-21 2.74324 	-0.0853719 	1.46911e-20 2.74793 	-0.0833284 	-4.3551e-24 2.75018 	-0.0819011 	-2.99022e-23 2.75248 	-0.0804761 	-5.5439e-23 2.75482 	-0.0790535 	-8.09658e-23 2.7555 	-0.0777954 	6.38608e-21 2.75976 	-0.0759468 	-5.07831e-20 2.76187 	-0.07461 	-4.94847e-20 2.76401 	-0.0732753 	-4.82138e-20 2.76619 	-0.0719427 	-4.69703e-20 2.76688 	-0.0707432 	-5.64114e-21 2.77075 	-0.0690699 	8.56101e-23 2.7727 	-0.0678201 	6.05022e-23 2.7747 	-0.066572 	3.53845e-23 2.77672 	-0.0653258 	1.02572e-23 2.77741 	-0.064187 	0 2.78091 	-0.0626714 	1.1199e-20 2.78272 	-0.061505 	3.75236e-20 2.78457 	-0.0603402 	6.38396e-20 2.78645 	-0.0591768 	9.01469e-20 2.78712 	-0.0580998 	1.07515e-19 2.79029 	-0.0567264 	1.73085e-19 2.79197 	-0.0556398 	1.72006e-19 2.79368 	-0.0545545 	1.70956e-19 2.79542 	-0.0534705 	1.69934e-19 2.79607 	-0.0524558 	1.02508e-19 2.79893 	-0.0512104 	8.75906e-20 2.80047 	-0.0502001 	5.31551e-20 2.80205 	-0.0491909 	1.87141e-20 2.80365 	-0.0481828 	-1.57322e-20 2.80429 	-0.0472301 	-4.66905e-20 2.80686 	-0.0461004 	-9.01835e-20 2.80828 	-0.0451628 	-8.89755e-20 2.80972 	-0.0442262 	-8.78012e-20 2.8112 	-0.0432905 	-8.66606e-20 2.8118 	-0.0423992 	-3.70569e-20 2.81412 	-0.0413738 	-4.95194e-20 2.81542 	-0.0405056 	-3.16975e-20 2.81674 	-0.0396382 	-1.38935e-20 2.81809 	-0.0387715 	3.89272e-21 2.81866 	-0.0379403 	4.31064e-20 2.82075 	-0.0370094 	4.98753e-20 2.82193 	-0.0362071 	6.73474e-20 2.82314 	-0.0354055 	8.48113e-20 2.82437 	-0.0346044 	1.02267e-19 2.8249 	-0.0338319 	1.22081e-19 2.82677 	-0.0329866 	1.46206e-19 2.82785 	-0.0322469 	1.36982e-19 2.82894 	-0.0315076 	1.2778e-19 2.83006 	-0.0307689 	1.18598e-19 2.83055 	-0.0300532 	8.16991e-20 2.83224 	-0.0292857 	5.80711e-20 2.83321 	-0.0286052 	3.23216e-20 2.8342 	-0.0279251 	6.57024e-21 2.83522 	-0.0272455 	-1.91829e-20 2.83566 	-0.0265845 	-4.10521e-20 2.83718 	-0.0258877 	-5.6112e-20 2.83805 	-0.0252632 	-3.83357e-20 2.83895 	-0.0246391 	-2.05855e-20 2.83986 	-0.0240153 	-2.86124e-21 2.84024 	-0.0234068 	4.84741e-20 2.84162 	-0.0227745 	1.02212e-19 2.84241 	-0.0222029 	1.0989e-19 2.84321 	-0.0216315 	1.17611e-19 2.84403 	-0.0210605 	1.25376e-19 2.84435 	-0.0205022 	8.86178e-20 2.8456 	-0.0199287 	7.1816e-20 2.8463 	-0.0194069 	6.32721e-20 2.84702 	-0.0188853 	5.47242e-20 2.84775 	-0.018364 	4.61721e-20 2.84801 	-0.0178533 	3.76227e-20 2.84916 	-0.0173337 	1.44985e-20 2.84978 	-0.0168587 	1.48482e-20 2.85042 	-0.0163838 	1.51753e-20 2.85107 	-0.0159092 	1.54799e-20 2.85126 	-0.0154437 	4.14822e-20 2.85231 	-0.0149734 	3.987