# vtk DataFile Version 2.0
track0
ASCII
DATASET POLYDATA
POINTS 12278 float
-0.0205 0.001 1e-05
-0.02052 0.000999216 1e-05
-0.02054 0.000998592 1e-05
-0.02056 0.000998126 1e-05
-0.02058 0.000997818 1e-05
-0.0206 0.000997665 1e-05
-0.0205 0.00367778 1e-05
-0.02052 0.00367703 1e-05
-0.02054 0.00367643 1e-05
-0.02056 0.00367599 1e-05
-0.02058 0.00367569 1e-05
-0.0206 0.00367554 1e-05
-0.0205 0.00635556 1e-05
-0.02052 0.00635527 1e-05
-0.02054 0.00635505 1e-05
-0.02056 0.00635488 1e-05
-0.02058 0.00635476 1e-05
-0.0206 0.00635471 1e-05
-0.0205 0.00903333 1e-05
-0.02052 0.00903311 1e-05
-0.02054 0.00903293 1e-05
-0.02056 0.0090328 1e-05
-0.02058 0.00903271 1e-05
-0.0206 0.00903266 1e-05
-0.0205 0.0117111 1e-05
-0.02052 0.0117111 1e-05
-0.02054 0.011711 1e-05
-0.02056 0.011711 1e-05
-0.02058 0.011711 1e-05
-0.0206 0.011711 1e-05
-0.0205 0.0143889 1e-05
-0.02052 0.014389 1e-05
-0.02054 0.014389 1e-05
-0.02056 0.0143891 1e-05
-0.02058 0.0143891 1e-05
-0.0206 0.0143891 1e-05
-0.0205 0.0170667 1e-05
-0.02052 0.017067 1e-05
-0.02054 0.0170672 1e-05
-0.02056 0.0170674 1e-05
-0.02058 0.0170675 1e-05
-0.0206 0.0170676 1e-05
-0.0205 0.0197444 1e-05
-0.02052 0.019745 1e-05
-0.02054 0.0197454 1e-05
-0.02056 0.0197457 1e-05
-0.02058 0.0197459 1e-05
-0.0206 0.019746 1e-05
-0.0205 0.0224222 1e-05
-0.02052 0.022423 1e-05
-0.02054 0.0224236 1e-05
-0.02056 0.0224241 1e-05
-0.02058 0.0224244 1e-05
-0.0206 0.0224245 1e-05
-0.0205 0.0251 1e-05
-0.02052 0.0251003 1e-05
-0.02054 0.0251005 1e-05
-0.02056 0.0251007 1e-05
-0.02058 0.0251008 1e-05
-0.0206 0.0251008 1e-05
-0.0205 0.001 1e-05
-0.0203632 0.00100536 1e-05
-0.0202266 0.00101331 1e-05
-0.0200901 0.00102296 1e-05
-0.0200427 0.00102682 1e-05
-0.0198376 0.00104418 1e-05
-0.0196338 0.00107322 1e-05
-0.0194327 0.00111734 1e-05
-0.0192368 0.00118024 1e-05
-0.0190172 0.00124951 1e-05
-0.0189002 0.00128348 1e-05
-0.0187827 0.00131598 1e-05
-0.0186649 0.001347 1e-05
-0.0185469 0.001377 1e-05
-0.0183807 0.00141936 1e-05
-0.0182041 0.00146458 1e-05
-0.0180267 0.00150692 1e-05
-0.0178487 0.0015464 1e-05
-0.0176703 0.00158389 1e-05
-0.0174976 0.0016199 1e-05
-0.0172846 0.00166394 1e-05
-0.0170715 0.00170741 1e-05
-0.0168583 0.00175029 1e-05
-0.0166449 0.00179219 1e-05
-0.0163945 0.00184007 1e-05
-0.0163234 0.00185324 1e-05
-0.0162522 0.00186629 1e-05
-0.016181 0.00187921 1e-05
-0.0161097 0.00189201 1e-05
-0.0160387 0.0019046 1e-05
-0.0157586 0.0019535 1e-05
-0.0154779 0.00199931 1e-05
-0.0151968 0.00204225 1e-05
-0.0149154 0.00208283 1e-05
-0.0146381 0.00212134 1e-05
-0.0143838 0.00215527 1e-05
-0.0141293 0.00218766 1e-05
-0.0138746 0.00221855 1e-05
-0.0136198 0.00224797 1e-05
-0.0132934 0.00228369 1e-05
-0.0132791 0.00228514 1e-05
-0.0132648 0.0022866 1e-05
-0.0132504 0.00228805 1e-05
-0.0132361 0.0022895 1e-05
-0.0132213 0.00229098 1e-05
-0.0129776 0.00231543 1e-05
-0.0127337 0.00233865 1e-05
-0.0124897 0.00236061 1e-05
-0.0122456 0.00238129 1e-05
-0.0120025 0.00240058 1e-05
-0.0117547 0.00241909 1e-05
-0.0115067 0.00243627 1e-05
-0.0112587 0.00245231 1e-05
-0.0110106 0.00246734 1e-05
-0.0107632 0.00248135 1e-05
-0.0105252 0.00249391 1e-05
-0.0102872 0.00250547 1e-05
-0.0100491 0.00251602 1e-05
-0.00981105 0.00252575 1e-05
-0.00957337 0.00253471 1e-05
-0.00934491 0.00254261 1e-05
-0.00911643 0.00254974 1e-05
-0.00888792 0.00255611 1e-05
-0.0086594 0.00256172 1e-05
-0.00843108 0.00256669 1e-05
-0.00821175 0.00257085 1e-05
-0.00799241 0.00257439 1e-05
-0.00777306 0.00257731 1e-05
-0.0075537 0.00257953 1e-05
-0.00733443 0.00258115 1e-05
-0.00712387 0.00258213 1e-05
-0.0069133 0.00258257 1e-05
-0.00670273 0.00258244 1e-05
-0.00649216 0.00258163 1e-05
-0.0062816 0.00258019 1e-05
-0.00607944 0.00257821 1e-05
-0.0058773 0.00257567 1e-05
-0.00567516 0.00257259 1e-05
-0.00547303 0.00256877 1e-05
-0.00527083 0.00256422 1e-05
-0.00507675 0.00255915 1e-05
-0.00488269 0.00255346 1e-05
-0.00468865 0.00254714 1e-05
-0.00449464 0.00254001 1e-05
-0.00430044 0.00253194 1e-05
-0.00411412 0.00252333 1e-05
-0.00392784 0.00251392 1e-05
-0.00374159 0.00250373 1e-05
-0.0035554 0.0024926 1e-05
-0.00336883 0.00248021 1e-05
-0.00318995 0.00246717 1e-05
-0.00301115 0.00245306 1e-05
-0.00283245 0.00243781 1e-05
-0.00265386 0.00242128 1e-05
-0.00247443 0.00240321 1e-05
-0.0023027 0.00238433 1e-05
-0.00213114 0.00236392 1e-05
-0.00195982 0.00234162 1e-05
-0.00178875 0.00231747 1e-05
-0.00161577 0.00229115 1e-05
-0.00161556 0.00229111 1e-05
-0.00161535 0.00229108 1e-05
-0.00161514 0.00229105 1e-05
-0.00161493 0.00229101 1e-05
-0.00161472 0.00229098 1e-05
-0.00145006 0.00226409 1e-05
-0.0012858 0.00223484 1e-05
-0.00112197 0.00220331 1e-05
-0.000958578 0.00216954 1e-05
-0.000791418 0.00213247 1e-05
-0.000633135 0.00209437 1e-05
-0.000475556 0.00205344 1e-05
-0.000318719 0.00200976 1e-05
-0.000162833 0.0019628 1e-05
0 0.00190965 1e-05
3.74187e-05 0.00189643 1e-05
7.47369e-05 0.00188292 1e-05
0.000111956 0.00186914 1e-05
0.000149078 0.00185511 1e-05
0.000179437 0.00184338 1e-05
0.000249227 0.00181597 1e-05
0.000318607 0.00178754 1e-05
0.000387563 0.00175809 1e-05
0.00045608 0.00172763 1e-05
0.000528387 0.00169429 1e-05
0.000634886 0.00164332 1e-05
0.000740278 0.0015901 1e-05
0.00084451 0.00153464 1e-05
0.000947621 0.00147712 1e-05
0.0010202 0.00143469 1e-05
0.00102834 0.00142977 1e-05
0.00103647 0.00142484 1e-05
0.00104458 0.00141989 1e-05
0.00105269 0.00141493 1e-05
0.00106088 0.0014099 1e-05
0.00116821 0.00134372 1e-05
0.00127404 0.00127517 1e-05
0.00137827 0.00120423 1e-05
0.00148099 0.00113111 1e-05
0.00159702 0.00104511 1e-05
0.00159712 0.00104503 1e-05
0.00159722 0.00104496 1e-05
0.00159732 0.00104488 1e-05
0.00159742 0.0010448 1e-05
0.00159752 0.00104473 1e-05
0.00169226 0.000971105 1e-05
0.0017856 0.000895716 1e-05
0.00187746 0.000818526 1e-05
0.0019679 0.000739678 1e-05
0.00203833 0.00067637 1e-05
0.00205833 0.000657941 1e-05
0.00207825 0.000639423 1e-05
0.00209808 0.000620816 1e-05
0.00211786 0.000602147 1e-05
0.00213833 0.0005827 1e-05
0.00219153 0.000531819 1e-05
0.00224424 0.00048042 1e-05
0.00229643 0.000428494 1e-05
0.00234809 0.000376037 1e-05
0.00239444 0.000328256 1e-05
0.00245222 0.000267866 1e-05
0.00250937 0.000206876 1e-05
0.00256589 0.000145305 1e-05
0.0026219 8.32691e-05 1e-05
0.00268334 1.40363e-05 1e-05
0.00268578 1.12291e-05 1e-05
0.00268822 8.42072e-06 1e-05
0.00269066 5.61131e-06 1e-05
0.0026931 2.80083e-06 1e-05
0.00269553 0 1e-05
0.00275943 -7.3737e-05 1e-05
0.00282271 -0.000148006 1e-05
0.00288535 -0.000222814 1e-05
0.00294732 -0.000298175 1e-05
0.00300439 -0.000368655 1e-05
0.00305003 -0.000425853 1e-05
0.00309536 -0.000483297 1e-05
0.00314038 -0.000540982 1e-05
0.00318516 -0.000598861 1e-05
0.00323259 -0.000660743 1e-05
0.0032507 -0.000684614 1e-05
0.00326876 -0.000708524 1e-05
0.00328677 -0.000732475 1e-05
0.00330472 -0.000756466 1e-05
0.00332232 -0.000780091 1e-05
0.00339046 -0.000871879 1e-05
0.003458 -0.000964109 1e-05
0.00352492 -0.00105679 1e-05
0.00359129 -0.00114987 1e-05
0.00365415 -0.00123896 1e-05
0.00368054 -0.00127677 1e-05
0.00370686 -0.00131463 1e-05
0.0037331 -0.00135254 1e-05
0.00375929 -0.00139049 1e-05
0.00378611 -0.00142947 1e-05
0.00383015 -0.00149367 1e-05
0.00387397 -0.00155801 1e-05
0.00391757 -0.00162251 1e-05
0.00396095 -0.00168716 1e-05
0.00400315 -0.00175044 1e-05
0.00407131 -0.0018532 1e-05
0.00413905 -0.00195624 1e-05
0.00420636 -0.00205956 1e-05
0.00427339 -0.00216307 1e-05
0.00434393 -0.00227267 1e-05
0.00435002 -0.0022822 1e-05
0.00435611 -0.00229173 1e-05
0.00436219 -0.00230126 1e-05
0.00436827 -0.00231079 1e-05
0.00437433 -0.0023203 1e-05
0.00445516 -0.00244725 1e-05
0.00453554 -0.00257449 1e-05
0.00461552 -0.00270197 1e-05
0.00469515 -0.00282968 1e-05
0.004773 -0.00295498 1e-05
0.00479962 -0.00299797 1e-05
0.00482621 -0.00304097 1e-05
0.00485278 -0.003084 1e-05
0.00487933 -0.00312702 1e-05
0.00490609 -0.00317037 1e-05
0.00496673 -0.00326862 1e-05
0.00502721 -0.00336697 1e-05
0.00508755 -0.0034654 1e-05
0.00514775 -0.00356392 1e-05
0.0052074 -0.00366161 1e-05
0.00526045 -0.00374854 1e-05
0.00531345 -0.0038355 1e-05
0.00536641 -0.00392248 1e-05
0.0054194 -0.00400945 1e-05
0.00547262 -0.00409669 1e-05
0.00551556 -0.00416697 1e-05
0.00555847 -0.00423728 1e-05
0.00560134 -0.00430761 1e-05
0.0056442 -0.00437794 1e-05
0.00568699 -0.00444811 1e-05
0.0057583 -0.00456496 1e-05
0.00582966 -0.00468178 1e-05
0.00590107 -0.00479857 1e-05
0.00597261 -0.00491527 1e-05
0.00604356 -0.00503055 1e-05
0.00607973 -0.00508909 1e-05
0.00611591 -0.00514762 1e-05
0.0061521 -0.00520616 1e-05
0.00618831 -0.00526467 1e-05
0.00622463 -0.00532325 1e-05
0.00630349 -0.00545021 1e-05
0.00638254 -0.00557706 1e-05
0.00646179 -0.00570378 1e-05
0.00654131 -0.00583033 1e-05
0.00661893 -0.00595305 1e-05
0.00666268 -0.00602178 1e-05
0.00670649 -0.00609047 1e-05
0.00675035 -0.00615913 1e-05
0.00679429 -0.00622774 1e-05
0.00683861 -0.0062967 1e-05
0.00691064 -0.0064084 1e-05
0.00698293 -0.00651994 1e-05
0.00705548 -0.00663131 1e-05
0.00712832 -0.00674249 1e-05
0.00719878 -0.00684923 1e-05
0.00726924 -0.00695518 1e-05
0.00733991 -0.007061 1e-05
0.00741082 -0.00716666 1e-05
0.00748203 -0.00727211 1e-05
0.00755475 -0.00737907 1e-05
0.00760043 -0.00744576 1e-05
0.00764623 -0.00751237 1e-05
0.00769217 -0.00757888 1e-05
0.00773824 -0.00764531 1e-05
0.00778313 -0.0077097 1e-05
0.00790091 -0.00787776 1e-05
0.00801946 -0.00804528 1e-05
0.00813878 -0.00821224 1e-05
0.0082591 -0.00837848 1e-05
0.00837203 -0.00853246 1e-05
0.00837938 -0.00854234 1e-05
0.00838673 -0.00855222 1e-05
0.00839408 -0.0085621 1e-05
0.00840143 -0.00857197 1e-05
0.00840881 -0.00858187 1e-05
0.00852015 -0.00873109 1e-05
0.00863232 -0.0088797 1e-05
0.00874534 -0.00902766 1e-05
0.00885923 -0.00917495 1e-05
0.00896551 -0.00931052 1e-05
0.00902965 -0.00939127 1e-05
0.00909404 -0.00947182 1e-05
0.0091587 -0.00955216 1e-05
0.00922366 -0.00963226 1e-05
0.00929076 -0.00971435 1e-05
0.00934533 -0.0097806 1e-05
0.00940009 -0.00984667 1e-05
0.00945506 -0.00991258 1e-05
0.00951023 -0.00997833 1e-05
0.0095636 -0.0100415 1e-05
[...]
POINT_DATA 12278
 FIELD attributes 2
p 1 12278 float
177020 177102 177175 177238 177292 177337
108954 108972 108988 109002 109015 109025
87760.4 87769.9 87779.3 87788.4 87797.4 87805.8
79942.7 79949 79955.2 79961.4 79967.4 79973.4
77151.8 77161.1 77170.3 77179.5 77188.7 77197.9
77569.3 77582.8 77596.4 77610 77623.5 77637.1
81102.5 81114.9 81127.1 81139.2 81151.2 81162.9
90929 90948.7 90967.7 90986 91003.6 91020.5
117361 117394 117424 117452 117478 117502
215480 215290 215098 214904 214708 214510
177020 173415 169088 164509 162843 158911 155529 152878 144713 134672 129229 123800 119862 119251 118399 112354 106455 102333 101438 100571 99588.7 98606.4 97179.8 95711.5 93995.8 93629.4 93262.4 92894.8 92413.8 91916.1 89996.6 88192.6 86678.7 85891.3 85114.6 84428.8 83764 83114.2 82462.4 81628.5 81593.5 81564.6 81536.6 81508.5 81479.7 80946.9 80414.6 79882.8 79351.5 78926.4 78500.2 78091 77693.4 77317.7 76951.8 76601.8 76251.5 75927.8 75626.3 75325.2 75035.7 74746 74467.5 74204.7 73942.1 73688.4 73434.7 73184.6 72948.4 72712.3 72483.4 72254.5 72023.9 71804.4 71585.2 71371.6 71158 70939.4 70728.5 70517.8 70310.7 70103.7 69890.8 69678.3 69466.2 69254.2 69042.8 68827.6 68599.5 68371.9 68139 67903.3 67659.2 67406.6 67140.6 66860.4 66546.6 66234.5 65923.8 65610.8 65610.3 65609.8 65609.2 65608.7 65608.1 65217.2 64831.9 64452.3 64054.5 63574.7 63059.2 62549.5 61848.8 61075.7 60262.7 60014 59775.6 59548.1 59321.2 59135.6 58579.3 58020.8 57460.3 56987.5 56519.8 55915.3 55312.6 54772.9 54231.8 53845.7 53788 53730.3 53675.4 53628.2 53580.3 53027.2 52467 51948.9 51476.7 50929.9 50929.2 50928.6 50928 50927.5 50927.1 50499.7 50064.8 49662.1 49326.4 49057.3 48958.4 48859 48788.4 48719 48646.7 48458 48267 48074.1 47929.6 47797.3 47624.8 47456.4 47316.9 47175.4 47016.3 47009.7 47003.1 46996.5 46990.5 46984.8 46879.6 46767.4 46652.6 46539.3 46432.4 46396.9 46360.1 46320.6 46280.3 46236.6 46216.4 46196 46175.5 46154.3 46133.1 46107.7 46081 46043.9 46001.6 45960 45962.4 45964.5 45963.8 45963 45962 45950.7 45939 45926.8 45911.7 45896.5 45906.2 45915.3 45919.8 45923.7 45927.4 45926.5 45925.7 45924.8 45923.7 45922.7 45936.1 45949.7 45962.3 45973 45983.3 45993.5 46003.7 46013.5 46023.2 46032.9 46044.4 46055.8 46067 46078 46088.9 46107.3 46125.7 46144.1 46162.6 46181.2 46189.7 46198.2 46206.9 46216 46225 46247.7 46270.4 46293.8 46317.6 46341.4 46348.7 46356.1 46363.8 46372 46380.3 46403.5 46426.7 46450.9 46476.1 46500.9 46509.7 46518.6 46528.2 46538.4 46548.6 46568.3 46588.1 46608.5 46630.4 46651.6 46665.4 46679.3 46694.9 46711.1 46727.7 46739.3 46750.9 46762.7 46775.4 46787.8 46809.7 46831.8 46857.3 46883.4 46909.3 46910.3 46911.4 46912.7 46914 46915.3 46936.5 46958 46979.8 47003.7 47026.1 47035.6 47045.1 47056 47067 47078.3 47088.1 47097.9 47107.7 47118.2 47128.4 47145.6 47162.9 47181.8 47201.6 47220.9 47223.4 47226 47228.9 47231.7 47234.6 47249 47263.5 47278.1 47293.8 47308.8 47322.4 47336.5 47351.9 47367.4 47384.1 47384.3 47384.5 47384.7 47384.8 47385 47399.6 47414.3 47429.1 47445 47460.2 47472.2 47484.8 47498.4 47512 47525.1 47525.7 47526.2 47526.8 47527.4 47528 47539.9 47551.8 47563.8 47576.5 47589 47599.3 47609.6 47621.3 47633.4 47645.4 47649.3 47653.7 47658.2 47662.8 47667.6 47673.5 47679.5 47685.4 47691.7 47698.1 47706.9 47716 47725.7 47736.6 47747 47754.6 47762.7 47771.6 47780.5 47789.7 47791.7 47794.1 47796.6 47799 47801.6 47807 47812.5 47817.9 47823.5 47829.6 47835.8 47842.3 47849.2 47857.3 47865.1 47870.1 47875.2 47881.4 47888 47894.7 47898.3 47902.9 47907.5 47912.1 47917.3 47917.6 47917.9 47918.2 47918.5 47918.8 47922.9 47927.1 47931.2 47935.3 47940.3 47942.6 47945.2 47948.1 47952 47955.8 47957 47958 47960 47962.7 47965.4 47965.3 47965.8 47966.7 47967.5 47968.9 47968.1 47967.8 47967.5 47967.2 47966.8 47966.8 47966.7 47966.7 47966.7 47966.7 47965.3 47964 47962.6 47961.2 47960.4 47957.2 47954.6 47952 47949.8 47947.9 47943.6 47939.2 47935.5 47932.4 47929.3 47923.8 47918.2 47913.3 47909 47904.7 47898.1 47891.5 47885.4 47879.6 47874.1 47866.4 47859 47851.7 47844.4 47837.8 47829 47820.6 47812.2 47803.8 47795.7 47787.2 47778.8 47770.4 47762.1 47752.3 47751.5 47750.6 47749.8 47749 47748.1 47737.7 47727.2 47716.8 47706.3 47695.9 47684.1 47672.6 47661.1 47649.6 47638.3 47625.3 47612.8 47600.3 47587.8 47575.5 47561.5 47547.9 47534.4 47521 47507.7 47492.8 47478.1 47463.6 47449.3 47435.1 47419.3 47403.6 47388.3 47373 47357.8 47341.3 47324.7 47308.4 47292.3 47276.2 47258.9 47241.5 47224.3 47207.4 47190.5 47172.4 47154.2 47136.2 47118.4 47100.7 47081.9 47063 47044.2 47025.6 47007.1 46987.6 46968.1 46948.6 46929.2 46910 46889.9 46869.7 46849.5 46829.4 46809.5 46788.7 46767.9 46747.1 46726.3 46705.8 46684.4 46663 46641.6 46620.2 46599 46577.2 46555.2 46533.2 46511.2 46489.4 46467.1 46444.5 46422 46399.5 46377.2 46354.3 46331.3 46308.3 46285.2 46262.4 46239 46215.6 46192.1 46168.6 46145.3 46121.5 46097.6 46073.6 46049.7 46025.9 46001.7 45977.4 45953 45928.7 45904.5 45879.9 45855.2 45830.5 45805.7 45781.1 45756.1 45731.1 45706 45680.9 45655.9 45630.6 45605.2 45579.8 45554.4 45529 45503.3 45477.6 45451.9 45426.2 45400.5 45374.5 45348.5 45322.5 45296.4 45270.4 45244.2 45217.9 45191.6 45165.3 45139 45112.4 45085.9 45059.3 45032.7 45006.2 44979.4 44952.6 44925.7 44898.9 44872.1 44845.1 44818 44790.9 44763.9 44736.8 44709.5 44682.2 44655 44627.7 44600.4 44572.9 44545.4 44517.9 44490.4 44462.8 44435.2 44407.4 44379.7 44352 44324.3 44296.4 44268.5 44240.5 44212.6 44184.7 44156.6 44128.5 44100.4 44072.3 44044.1 44015.9 43987.6 43959.3 43931 43902.7 43874.2 43845.7 43817.2 43788.7 43760.3 43731.6 43703 43674.3 43645.6 43617 43588.1 43559.3 43530.5 43501.6 43472.8 43443.8 43414.8 43385.8 43356.7 43327.7 43298.6 43269.4 43240.2 43211 43181.8 43152.5 43123.1 43093.8 43064.4 43035 43005.6 42976 42946.5 42917 42887.4 42857.8 42828.1 42798.4 42768.7 42738.9 42709.1 42679.2 42649.4 42619.5 42589.6 42559.6 42529.6 42499.5 42469.5 42439.4 42409.2 42379 42348.8 42318.6 42288.3 42258 42227.6 42197.2 42166.8 42136.4 42105.8 42075.2 42044.7 42014.1 41983.5 41952.8 41922 41891.3 41860.5 41829.7 41798.8 41767.9 41736.9 41706 41675 41643.9 41612.8 41581.7 41550.5 41519.4 41488.1 41456.8 41425.5 41394.1 41362.8 41331.3 41299.8 41268.3 41236.8 41205.2 41173.5 41141.8 41110.1 41078.4 41046.6 41014.8 40982.8 40950.9 40919 40887 40855 40822.8 40790.7 40758.6 40726.4 40694.1 40661.8 40629.5 40597.1 40564.7 40532.3 40499.7 40467.2 40434.6 40402 40369.3 40336.5 40303.8 40271 40238.2 40205.2 40172.2 40139.3 40106.3 40073.2 40040.1 40006.9 39973.6 39940.4 39907.2 39873.8 39840.3 39806.9 39773.4 39739.9 39706.3 39672.6 39639 39605.3 39571.5 39537.7 39503.8 39469.8 39435.9 39401.9 39367.9 39333.7 39299.5 39265.4 39231.2 39196.8 39162.4 39128 39093.6 39059.1 39024.6 38989.9 38955.2 38920.6 38885.9 38851 38816.1 38781.2 38746.3 38711.3 38676.3 38641.1 38605.9 38570.8 38535.5 38500.2 38464.8 38429.4 38393.9 38358.4 38322.8 38287.1 38251.5 38215.8 38180 38144.1 38108.2 38072.2 38036.3 38000.3 37964.1 37927.9 37891.7 37855.5 37819.2 37782.7 37746.3 37709.8 37673.3 37636.7 37600 37563.2 37526.5 37489.7 37452.8 37415.9 37378.8 37341.8 37304.7 37267.6 37230.3 37193 37155.7 37118.3 37080.9 37043.4 37005.8 36968.2 36930.6 36892.9 36855 36817.2 36779.2 36741.3 36703.3 36665.2 36627 36588.9 36550.6 36512.4 36473.9 36435.5 36397 36358.5 36319.9 36281.2 36242.4 36203.7 36164.8 36126 36087 36047.9 36008.8 35969.7 35930.5 35891.2 35851.9 35812.5 35773.1 35733.6 35694 35654.3 35614.6 35574.9 35535.1 35495.2 35455.3 35415.3 35375.2 35335.1 35294.9 35254.6 35214.3 35174 35133.6 35093 35052.4 35011.8 34971.2 34930.4 34889.6 34848.7 34807.8 34766.8 34725.7 34684.6 34643.4 34602.1 34560.8 34519.5 34478 34436.4 34394.9 34353.2 34311.6 34269.7 34227.9 34186 34144 34102 34059.9 34017.7 33975.5 33933.2 33890.9 33848.4 33805.9 33763.4 33720.7 33678.1 33635.3 33592.5 33549.6 33506.6 33463.7 33420.5 33377.4 33334.2 33290.9 33247.6 33204.1 33160.6 33117 33073.4 33029.8 32985.9 32942.1 32898.2 32854.2 32810.3 32766.1 32721.9 32677.7 32633.4 32589.1 32544.6 32500 32455.5 32410.8 32366.1 32321.3 32276.4 32231.5 32186.5 32141.5 32096.3 32051.1 32005.8 31960.4 31915.1 31869.5 31824 31778.3 31732.6 31686.9 31641 31595.1 31549.1 31503 31456.9 31410.7 31364.4 31318.1 31271.6 31225.2 31178.6 31131.9 31085.2 31038.4 30991.7 30944.7 30897.7 30850.6 30803.4 30756.3 30708.9 30661.6 30614.1 30566.6 30519.1 30471.4 30423.6 30375.8 30327.9 30280 30231.9 30183.8 30135.6 30087.4 30039.1 29990.6 29942.1 29893.6 29845 29796.3 29747.5 29698.6 29649.6 29600.6 29551.6 29502.4 29453.1 29403.8 29354.4 29305 29255.4 29205.7 29156 29106.2 29056.4 29006.4 28956.4 28906.3 28856.1 28805.9 28755.5 28705.1 28654.6 28604 28553.5 28502.6 28451.8 28400.9 28350 28299 28247.8 28196.5 28145.3 28093.9 28042.5 27990.9 27939.2 27887.5 27835.8 27784 27731.9 27679.9 27627.8 27575.6 27523.4 27470.9 27418.5 27365.9 27313.3 27260.7 27207.8 27154.9 27102 27048.9 26995.9 26942.6 26889.3 26835.9 26782.5 26729 26675.3 26621.5 26567.7 26513.9 26460 26405.8 26351.7 26297.5 26243.2 26188.9 26134.3 26079.7 26025.1 25970.4 25915.7 25860.7 25805.8 25750.8 25695.7 25640.6 25585.3 25529.9 25474.6 25419.2 25363.8 25308.1 25252.5 25196.9 25141.3 25085.6 25029.7 24973.9 24918.2 24862.5 24806.7 24750.8 24695.1 24639.4 24583.7 24528.1 24472.3 24417 24361.9 24306.9 24252.1 24197.5 24142.5 24087.5 24032.5 23977.1 23922.4 23873.7 23825.1 23776.5 23732.7 23683.6 23618.2 23552.8 23487.2 23412.7 23361.6 23331.2 23301.1 23271.3 23257.1 23253 23248.8 23244.6 23240.5 23238.9 23236.3 23231.1 23225.8 23220.5 23214.8 23187.8 23160.6 23133.2 23105.5 23061.9 22986 22917 22848.1 22779.2 22723 22671.8 22615.5 22559.2 22502.8 22440.1 22372.4 22304.3 22236.2 22168.1 22099.6 22028.3 21955.1 21881.9 21808.6 21733.3 21655 21575.2 21495.4 21415.6 21334.2 21250 21163.8 21077.7 20991.5 20903.5 20812.5 20719.6 20626.7 20533.6 20438.8 20340.7 20240.5 20140.2 20039.8 19937.5 19831.6 19723.4 19615.1 19506.7 19396.3 19281.9 19164.9 19047.6 18930.3 18810.6 18686.5 18559.8 18432.9 18305.9 18176.4 18042.4 17904.4 17766.3 17627.9 17486.1 17339.1 17189.4 17039.5 16889.6 16737.3 16579.5 16415 16250 16084.8 15913.3 15735.6 15557.5 15379.3 15201.1 15023.1 14838.4 14638.9 14438.6 14237.5 14022.2 13799 13585.9 13373.4 13161.5 12960.2 12751.3 12503.8 12254 12002.1 11712.8 11412.7 11157.3 10904.8 10655.1 10450.3 10237.7 9921.75 9598.17 9266.01 8833.33 8384.34 8071.58 7773.97 7494.38 7349.27 7198.24 6801.76 6357.3 5839.06 5089.68 4311.4 3779.23 3398.31 3250.96 3316.69 3382.99 3362.05 2777.15 1388.16 0