4.545454545e-05 	7.441758194e-05 	1.15518588e-05 	5.307295265e-12
6.060606061e-05 	0.0001924059811 	2.98670844e-05 	1.372169811e-11
7.575757576e-05 	0.0003103943767 	4.81823105e-05 	2.213610272e-11
9.090909091e-05 	0.0004506768405 	6.452687493e-05 	2.663168326e-11
0.0001060606061 	0.0006159257064 	7.866537691e-05 	2.674055865e-11
0.0001212121212 	0.0007811745632 	9.280387821e-05 	2.684943326e-11
0.0001363636364 	0.0009631959316 	0.0001054754476 	2.700686247e-11
0.0001515151515 	0.001182073771 	0.0001149246733 	2.727137562e-11
0.0001666666667 	0.0014009516 	0.0001243738981 	2.75358883e-11
0.0001818181818 	0.001629366391 	0.0001331142826 	2.784943043e-11
0.000196969697 	0.001910263127 	0.0001379561066 	2.843165755e-11
0.0002121212121 	0.00219115985 	0.0001427979292 	2.90138844e-11
0.0002272727273 	0.002472056566 	0.0001476397507 	2.959611104e-11
0.0002424242424 	0.00282541238 	0.0001485719854 	2.981677189e-11
0.0002575757576 	0.003179146987 	0.0001494840617 	3.00354576e-11
0.0002727272727 	0.003532881582 	0.0001503961371 	3.025414331e-11
0.0002878787879 	0.003959227119 	0.0001487318019 	3.029849236e-11
0.000303030303 	0.004399835216 	0.0001465616702 	3.030829665e-11
0.0003181818182 	0.004840443289 	0.0001443915356 	3.03181016e-11
0.0003333333333 	0.005351715079 	0.000140845375 	2.9605831e-11
0.0003484848485 	0.005896724275 	0.0001366425176 	2.854904626e-11
0.0003636363636 	0.006441733432 	0.0001324396558 	2.749226169e-11
0.0003787878788 	0.007051514786 	0.0001277839968 	2.678614632e-11
0.0003939393939 	0.007721597551 	0.0001227070557 	2.640700517e-11
0.0004090909091 	0.008391680263 	0.0001176301098 	2.602786312e-11
0.0004242424242 	0.009114888407 	0.0001126375096 	2.67035404e-11
0.0004393939394 	0.009932995371 	0.000107795839 	2.926354008e-11
0.0004545454545 	0.01075110229 	0.0001029541662 	3.182353918e-11
0.0004696969697 	0.01160363196 	9.834266047e-05 	3.40799606e-11
0.0004848484848 	0.01259392086 	9.465256652e-05 	3.512055926e-11
0.0005 	0.01358420973 	9.096246891e-05 	3.616115774e-11
0.0005151515152 	0.01458254951 	8.734564337e-05 	3.712735174e-11
0.0005303030303 	0.01576946905 	8.544581123e-05 	3.635651421e-11
0.0005454545455 	0.01695638854 	8.354597778e-05 	3.558567643e-11
0.0005606060606 	0.01814330798 	8.164614279e-05 	3.481483839e-11
0.0005757575758 	0.01952496893 	8.163012715e-05 	3.506796677e-11
0.0005909090909 	0.02093269177 	8.186622136e-05 	3.54578107e-11
0.0006060606061 	0.02234041456 	8.210231133e-05 	3.584765462e-11
0.0006212121212 	0.02392487044 	8.394478213e-05 	3.556352744e-11
0.0006363636364 	0.02557704037 	8.640270299e-05 	3.502111289e-11
0.0006515151515 	0.02722921018 	8.886061846e-05 	3.447869845e-11
0.0006666666667 	0.02903223164 	9.250184452e-05 	3.385081847e-11
0.0006818181818 	0.03095186221 	9.705771841e-05 	3.315732208e-11
0.000696969697 	0.03287149267 	0.0001016135862 	3.24638247e-11
0.0007121212121 	0.03490848142 	0.0001069020956 	3.216415336e-11
0.0007272727273 	0.03711785886 	0.000113266675 	3.244299886e-11
0.0007424242424 	0.03932723617 	0.0001196312516 	3.272184391e-11
0.0007575757576 	0.04161317416 	0.00012633714 	3.281334151e-11
0.0007727272727 	0.04413369779 	0.000134088587 	3.233046665e-11
0.0007878787879 	0.04665422132 	0.0001418400301 	3.184759141e-11
0.000803030303 	0.04920360737 	0.0001496662473 	3.139839627e-11
0.0008181818182 	0.05205556779 	0.000158275558 	3.130178457e-11
0.0008333333333 	0.05490752815 	0.0001668848672 	3.120517279e-11
0.0008484848485 	0.05775948843 	0.000175494175 	3.110856093e-11
0.0008636363636 	0.06093662304 	0.0001843321237 	3.290232316e-11
0.0008787878788 	0.06413894662 	0.0001931876951 	3.48421291e-11
0.0008939393939 	0.06734127009 	0.000202043263 	3.678193576e-11
0.0009090909091 	0.07082637483 	0.0002105760712 	3.644080374e-11
0.0009242424242 	0.07439636259 	0.0002190118785 	3.541509581e-11
0.0009393939394 	0.07796635014 	0.0002274476818 	3.438938848e-11
0.0009545454545 	0.08177008473 	0.0002352084809 	3.137291855e-11
0.0009696969697 	0.08572316876 	0.0002425378364 	2.708577562e-11
0.0009848484848 	0.0896762526 	0.0002498671876 	2.279862995e-11
0.001 	0.09380820584 	0.0002563961426 	2.035898201e-11
0.001015151515 	0.09815774224 	0.0002619512398 	2.016741804e-11
0.00103030303 	0.1025072784 	0.0002675063353 	1.997585218e-11
0.001045454545 	0.1069759118 	0.0002723664949 	2.026171243e-11
0.001060606061 	0.1117330395 	0.0002755429237 	2.170250061e-11
0.001075757576 	0.1164901671 	0.0002787193504 	2.314328733e-11
0.001090909091 	0.121302783 	0.0002815131804 	2.424648013e-11
0.001106060606 	0.1264764244 	0.0002818169135 	2.314943323e-11
0.001121212121 	0.1316500657 	0.0002821206459 	2.205238649e-11
0.001136363636 	0.136823707 	0.0002824243779 	2.095533986e-11
0.001151515152 	0.1424100529 	0.0002795987489 	1.920944348e-11
0.001166666667 	0.1480073095 	0.0002766902798 	1.744585644e-11
0.001181818182 	0.1536045659 	0.0002737818097 	1.568227109e-11
0.001196969697 	0.1595528855 	0.0002681394906 	1.067152155e-11
0.001212121212 	0.1655807536 	0.0002618775795 	4.92514933e-12
0.001227272727 	0.1716086214 	0.0002556156676 	-8.212211414e-13
0.001242424242 	0.1779278936 	0.0002472462108 	-4.395872444e-12
0.001257575758 	0.18439978 	0.0002377728618 	-6.832557309e-12
0.001272727273 	0.1908716658 	0.0002282995129 	-9.269241927e-12
0.001287878788 	0.1975863862 	0.0002174855195 	-8.35876387e-12
0.001303030303 	0.2045465687 	0.0002053162469 	-4.064973386e-12
0.001318181818 	0.2115067508 	0.0001931469742 	2.288170413e-13
0.001333333333 	0.2186887334 	0.0001801450841 	3.311965403e-12
0.001348484848 	0.2263044971 	0.0001655146367 	4.028996529e-12
0.001363636364 	0.2339202605 	0.0001508841898 	4.746025906e-12
0.001378787879 	0.2417695334 	0.0001353522778 	4.479045156e-12
0.001393939394 	0.2506873465 	0.0001156947928 	-2.909667546e-13
0.001409090909 	0.2596051594 	9.603730829e-05 	-5.060979032e-12
0.001424242424 	0.2686034412 	7.628498356e-05 	-9.671113582e-12
0.001439393939 	0.2814743405 	5.197952791e-05 	-6.589781879e-12
0.001454545455 	0.2943452391 	2.767407304e-05 	-3.50845125e-12
0.00146969697 	0.3072161367 	3.368619158e-06 	-4.271219833e-13
