# vtk DataFile Version 2.0
track0
ASCII
DATASET POLYDATA
POINTS 12298 float
-0.0205 0.001 1e-05
-0.02052 0.000999216 1e-05
-0.02054 0.000998592 1e-05
-0.02056 0.000998126 1e-05
-0.02058 0.000997818 1e-05
-0.0206 0.000997665 1e-05
-0.0205 0.00367778 1e-05
-0.02052 0.00367703 1e-05
-0.02054 0.00367643 1e-05
-0.02056 0.00367599 1e-05
-0.02058 0.00367569 1e-05
-0.0206 0.00367554 1e-05
-0.0205 0.00635556 1e-05
-0.02052 0.00635527 1e-05
-0.02054 0.00635505 1e-05
-0.02056 0.00635488 1e-05
-0.02058 0.00635476 1e-05
-0.0206 0.00635471 1e-05
-0.0205 0.00903333 1e-05
-0.02052 0.00903311 1e-05
-0.02054 0.00903293 1e-05
-0.02056 0.0090328 1e-05
-0.02058 0.00903271 1e-05
-0.0206 0.00903266 1e-05
-0.0205 0.0117111 1e-05
-0.02052 0.0117111 1e-05
-0.02054 0.011711 1e-05
-0.02056 0.011711 1e-05
-0.02058 0.011711 1e-05
-0.0206 0.011711 1e-05
-0.0205 0.0143889 1e-05
-0.02052 0.014389 1e-05
-0.02054 0.014389 1e-05
-0.02056 0.0143891 1e-05
-0.02058 0.0143891 1e-05
-0.0206 0.0143891 1e-05
-0.0205 0.0170667 1e-05
-0.02052 0.017067 1e-05
-0.02054 0.0170672 1e-05
-0.02056 0.0170674 1e-05
-0.02058 0.0170675 1e-05
-0.0206 0.0170676 1e-05
-0.0205 0.0197444 1e-05
-0.02052 0.019745 1e-05
-0.02054 0.0197454 1e-05
-0.02056 0.0197457 1e-05
-0.02058 0.0197459 1e-05
-0.0206 0.019746 1e-05
-0.0205 0.0224222 1e-05
-0.02052 0.022423 1e-05
-0.02054 0.0224236 1e-05
-0.02056 0.0224241 1e-05
-0.02058 0.0224244 1e-05
-0.0206 0.0224245 1e-05
-0.0205 0.0251 1e-05
-0.02052 0.0251003 1e-05
-0.02054 0.0251005 1e-05
-0.02056 0.0251007 1e-05
-0.02058 0.0251008 1e-05
-0.0206 0.0251008 1e-05
-0.0205 0.001 1e-05
-0.0203632 0.00100536 1e-05
-0.0202266 0.00101331 1e-05
-0.0200901 0.00102296 1e-05
-0.0200427 0.00102682 1e-05
-0.0198376 0.00104418 1e-05
-0.0196338 0.00107322 1e-05
-0.0194327 0.00111734 1e-05
-0.0192367 0.00118023 1e-05
-0.0190172 0.00124951 1e-05
-0.0189002 0.00128348 1e-05
-0.0187827 0.00131598 1e-05
-0.0186649 0.00134699 1e-05
-0.0185468 0.001377 1e-05
-0.0183806 0.00141936 1e-05
-0.018204 0.00146457 1e-05
-0.0180267 0.00150691 1e-05
-0.0178487 0.00154638 1e-05
-0.0176703 0.00158387 1e-05
-0.0174976 0.00161988 1e-05
-0.0172846 0.00166392 1e-05
-0.0170714 0.0017074 1e-05
-0.0168582 0.00175028 1e-05
-0.0166447 0.00179218 1e-05
-0.0163943 0.00184007 1e-05
-0.0163232 0.00185323 1e-05
-0.016252 0.00186627 1e-05
-0.0161809 0.00187918 1e-05
-0.0161097 0.00189197 1e-05
-0.0160387 0.00190455 1e-05
-0.0157586 0.00195345 1e-05
-0.0154779 0.00199926 1e-05
-0.0151968 0.0020422 1e-05
-0.0149154 0.00208278 1e-05
-0.0146381 0.00212129 1e-05
-0.0143838 0.00215523 1e-05
-0.0141293 0.00218763 1e-05
-0.0138746 0.00221854 1e-05
-0.0136197 0.00224798 1e-05
-0.0132934 0.0022837 1e-05
-0.0132791 0.00228516 1e-05
-0.0132649 0.00228661 1e-05
-0.0132506 0.00228806 1e-05
-0.0132363 0.0022895 1e-05
-0.0132216 0.00229098 1e-05
-0.0129778 0.00231546 1e-05
-0.0127338 0.00233871 1e-05
-0.0124898 0.00236071 1e-05
-0.0122456 0.00238143 1e-05
-0.0120025 0.00240075 1e-05
-0.0117547 0.00241931 1e-05
-0.0115067 0.00243653 1e-05
-0.0112587 0.00245263 1e-05
-0.0110106 0.00246772 1e-05
-0.0107632 0.0024818 1e-05
-0.0105252 0.00249443 1e-05
-0.0102872 0.00250607 1e-05
-0.0100491 0.0025167 1e-05
-0.00981105 0.00252652 1e-05
-0.00957337 0.00253558 1e-05
-0.00934491 0.00254357 1e-05
-0.00911643 0.00255081 1e-05
-0.00888792 0.00255729 1e-05
-0.0086594 0.00256303 1e-05
-0.00843108 0.00256813 1e-05
-0.00821175 0.00257243 1e-05
-0.00799241 0.00257611 1e-05
-0.00777306 0.00257918 1e-05
-0.0075537 0.00258156 1e-05
-0.00733443 0.00258335 1e-05
-0.00712387 0.00258451 1e-05
-0.0069133 0.00258512 1e-05
-0.00670273 0.00258518 1e-05
-0.00649216 0.00258457 1e-05
-0.0062816 0.00258334 1e-05
-0.00607944 0.00258157 1e-05
-0.0058773 0.00257925 1e-05
-0.00567515 0.00257639 1e-05
-0.00547302 0.00257281 1e-05
-0.00527083 0.00256851 1e-05
-0.00507675 0.0025637 1e-05
-0.00488269 0.00255826 1e-05
-0.00468865 0.00255222 1e-05
-0.00449463 0.00254536 1e-05
-0.00430044 0.00253758 1e-05
-0.00411412 0.00252926 1e-05
-0.00392783 0.00252015 1e-05
-0.00374159 0.00251027 1e-05
-0.00355539 0.00249944 1e-05
-0.00336883 0.00248737 1e-05
-0.00318995 0.00247466 1e-05
-0.00301115 0.00246087 1e-05
-0.00283244 0.00244599 1e-05
-0.00265384 0.00242983 1e-05
-0.00247443 0.00241212 1e-05
-0.0023027 0.00239358 1e-05
-0.00213114 0.00237354 1e-05
-0.0019598 0.00235165 1e-05
-0.00178871 0.00232791 1e-05
-0.00161577 0.00230203 1e-05
-0.00160204 0.00229982 1e-05
-0.00158831 0.00229759 1e-05
-0.00157459 0.00229535 1e-05
-0.00156087 0.00229309 1e-05
-0.00154817 0.00229098 1e-05
-0.00139682 0.00226562 1e-05
-0.00124581 0.0022383 1e-05
-0.00109516 0.00220906 1e-05
-0.000944892 0.00217794 1e-05
-0.000791418 0.00214403 1e-05
-0.000633135 0.0021063 1e-05
-0.000475549 0.00206576 1e-05
-0.000318698 0.00202246 1e-05
-0.00016277 0.00197595 1e-05
0 0.00192327 1e-05
4.50806e-05 0.00190746 1e-05
9.00161e-05 0.00189125 1e-05
0.000134808 0.00187464 1e-05
0.000179458 0.00185765 1e-05
0.000214382 0.00184403 1e-05
0.000277183 0.00181905 1e-05
0.000339647 0.00179323 1e-05
0.000401764 0.0017666 1e-05
0.000463522 0.00173914 1e-05
0.000528387 0.00170933 1e-05
0.000634886 0.0016587 1e-05
0.000740281 0.00160582 1e-05
0.000844513 0.00155067 1e-05
0.000947617 0.00149345 1e-05
0.00104789 0.00143511 1e-05
0.00105049 0.00143352 1e-05
0.00105309 0.00143194 1e-05
0.00105568 0.00143035 1e-05
0.00105828 0.00142877 1e-05
0.00106088 0.00142717 1e-05
0.00116821 0.00136135 1e-05
0.00127404 0.00129314 1e-05
0.00137829 0.00122255 1e-05
0.00148098 0.0011497 1e-05
0.00159752 0.00106358 1e-05
0.00160221 0.00105994 1e-05
0.0016069 0.0010563 1e-05
0.00161159 0.00105265 1e-05
0.00161628 0.001049 1e-05
0.0016209 0.00104539 1e-05
0.00171511 0.000971666 1e-05
0.00180788 0.000896134 1e-05
0.00189912 0.000818767 1e-05
0.00198895 0.000739766 1e-05
0.00205864 0.000676527 1e-05
0.00207458 0.000661689 1e-05
0.00209046 0.000646793 1e-05
0.00210629 0.000631839 1e-05
0.00212208 0.000616843 1e-05
0.00213833 0.00060133 1e-05
0.0021952 0.000546738 1e-05
0.00225149 0.000491535 1e-05
0.00230716 0.000435713 1e-05
0.0023622 0.000379262 1e-05
0.00241103 0.000328321 1e-05
0.00246549 0.000270628 1e-05
0.00251936 0.000212377 1e-05
0.00257263 0.000153584 1e-05
0.00262541 9.43512e-05 1e-05
0.00268334 2.82147e-05 1e-05
0.00268818 2.25718e-05 1e-05
0.00269302 1.69244e-05 1e-05
0.00269786 1.12725e-05 1e-05
0.00270269 5.61623e-06 1e-05
0.00270748 0 1e-05
0.00277025 -7.37405e-05 1e-05
0.00283237 -0.000148038 1e-05
0.0028938 -0.000222899 1e-05
0.00295453 -0.000298333 1e-05
0.00301023 -0.000368671 1e-05
0.0030547 -0.000425741 1e-05
0.00309884 -0.000483066 1e-05
0.00314265 -0.000540643 1e-05
0.00318619 -0.00059843 1e-05
0.00323259 -0.000660647 1e-05
0.0032502 -0.000684534 1e-05
0.00326776 -0.000708463 1e-05
0.00328526 -0.000732435 1e-05
0.00330269 -0.00075645 1e-05
0.00331978 -0.000780078 1e-05
0.00338583 -0.000871848 1e-05
0.00345121 -0.000964093 1e-05
0.00351591 -0.00105682 1e-05
0.00358 -0.00114998 1e-05
0.00364037 -0.00123885 1e-05
0.00366952 -0.0012823 1e-05
0.00369855 -0.00132582 1e-05
0.00372747 -0.00136942 1e-05
0.0037563 -0.00141308 1e-05
0.00378611 -0.0014584 1e-05
0.00382431 -0.00151675 1e-05
0.0038623 -0.00157525 1e-05
0.00390009 -0.00163388 1e-05
0.00393765 -0.00169264 1e-05
0.00397416 -0.00175015 1e-05
0.00404603 -0.00186408 1e-05
0.00411728 -0.00197841 1e-05
0.00418789 -0.00209313 1e-05
0.00425803 -0.00220814 1e-05
0.00432542 -0.00231973 1e-05
0.00432913 -0.00232591 1e-05
0.00433283 -0.00233209 1e-05
0.00433652 -0.00233828 1e-05
0.00434022 -0.00234446 1e-05
0.00434393 -0.00235066 1e-05
0.00441605 -0.00247134 1e-05
0.00448771 -0.0025923 1e-05
0.00455889 -0.00271354 1e-05
0.00462958 -0.00283506 1e-05
0.00469834 -0.00295398 1e-05
0.00473989 -0.00302626 1e-05
0.00478132 -0.00309861 1e-05
0.00482263 -0.00317103 1e-05
0.00486389 -0.00324348 1e-05
0.00490609 -0.00331773 1e-05
0.00494494 -0.00338619 1e-05
0.00498368 -0.00345472 1e-05
0.0050223 -0.00352331 1e-05
0.00506081 -0.00359197 1e-05
0.00509891 -0.00366003 1e-05
0.00517365 -0.0037938 1e-05
0.00524815 -0.00392772 1e-05
0.0053224 -0.00406177 1e-05
0.00539657 -0.00419586 1e-05
0.00547262 -0.00433343 1e-05
0.00548503 -0.0043559 1e-05
0.00549744 -0.00437837 1e-05
0.00550984 -0.00440085 1e-05
0.00552223 -0.00442333 1e-05
0.0055346 -0.00444577 1e-05
0.00563094 -0.00462061 1e-05
0.00572714 -0.00479553 1e-05
0.00582319 -0.00497053 1e-05
0.0059193 -0.0051455 1e-05
0.00601548 -0.00531996 1e-05
0.0060211 -0.00533011 1e-05
0.00602671 -0.00534025 1e-05
0.00603233 -0.0053504 1e-05
0.00603795 -0.00536054 1e-05
0.00604356 -0.00537067 1e-05
0.00614572 -0.00555499 1e-05
0.00624807 -0.0057392 1e-05
0.00635062 -0.00592331 1e-05
0.00645352 -0.00610722 1e-05
0.00655789 -0.00629232 1e-05
0.0065701 -0.0063138 1e-05
0.00658231 -0.00633528 1e-05
0.00659453 -0.00635675 1e-05
0.00660677 -0.00637822 1e-05
0.00661893 -0.00639954 1e-05
0.00673019 -0.00659431 1e-05
0.00684199 -0.00678877 1e-05
0.00695434 -0.00698292 1e-05
0.00706749 -0.00717659 1e-05
0.0071839 -0.00737352 1e-05
0.00718688 -0.00737849 1e-05
0.00718985 -0.00738346 1e-05
0.00719283 -0.00738843 1e-05
0.00719581 -0.0073934 1e-05
0.00719878 -0.00739836 1e-05
0.00731565 -0.00759332 1e-05
0.00743342 -0.00778773 1e-05
0.00755217 -0.00798156 1e-05
0.00767202 -0.0081747 1e-05
0.00778313 -0.00835093 1e-05
0.00781185 -0.0083958 1e-05
0.00784061 -0.00844063 1e-05
0.00786944 -0.00848543 1e-05
0.00789833 -0.00853017 1e-05
0.00792756 -0.00857528 1e-05
0.00801646 -0.00871192 1e-05
0.00810601 -0.00884814 1e-05
0.00819623 -0.00898391 1e-05
0.00828716 -0.00911921 1e-05
0.00837203 -0.00924391 1e-05
0.0084358 -0.00933646 1e-05
0.00849989 -0.00942879 1e-05
0.00856432 -0.00952089 1e-05
0.00862913 -0.00961271 1e-05
0.00869611 -0.00970675 1e-05
0.00874999 -0.00978168 1e-05
0.00880412 -0.00985643 1e-05
0.00885851 -0.009931 1e-05
0.00891316 -0.0100054 1e-05
0.00896551 -0.0100761 1e-05
0.00907915 -0.0102284 1e-05
0.00919389 -0.0103799 1e-05
0.00930974 -0.0105305 1e-05
0.0094268 -0.0106802 1e-05
0.00955219 -0.0108379 1e-05
0.00955447 -0.0108407 1e-05
[...]
POINT_DATA 12298
 FIELD attributes 2
p 1 12298 float
178363 178445 178517 178581 178635 178679
110298 110316 110332 110346 110359 110369
89108.1 89117.6 89127 89136.2 89145.1 89153.5
81294.2 81300.5 81306.7 81312.8 81318.9 81324.9
78506.4 78515.6 78524.9 78534.1 78543.3 78552.5
78926.6 78940.2 78953.8 78967.3 78980.9 78994.4
82463 82475.4 82487.7 82499.8 82511.7 82523.4
92292.9 92312.6 92331.6 92349.9 92367.5 92384.4
118727 118760 118790 118819 118845 118868
216847 216657 216465 216271 216075 215877
178363 174758 170431 165852 164186 160254 156871 154221 146056 136015 130572 125142 121204 120593 119741 113696 107797 103675 102780 101913 100930 99947.5 98520.2 97051.3 95335 94968.7 94601.8 94234.4 93753.7 93256.2 91336.3 89532.2 88017.4 87229.5 86452.2 85765.8 85100.4 84450 83797.6 82963.1 82928.3 82899.4 82871.4 82843.4 82814.7 82281.2 81748.1 81215.5 80683.5 80257.7 79830.8 79420.7 79022.3 78646 78279.3 77928.5 77577.5 77252.9 76950.6 76648.7 76358.3 76067.8 75788.3 75524.7 75261.2 75006.7 74752.1 74501 74264 74027.1 73797.3 73567.5 73336.3 73115.7 72895.8 72681.3 72467 72247.2 72035.7 71824.4 71616.7 71409.1 71194.9 70982.1 70769.6 70557.4 70345.6 70129 69901.1 69673.5 69440.9 69206.4 68962.9 68708.6 68443.7 68165.6 67855.6 67545.2 67236.3 66921.5 66891.9 66856.3 66820.3 66784.3 66751.1 66396 66045.7 65700.1 65336.4 64900.3 64389.9 63885.1 63216.4 62448.9 61645.6 61349.3 61065.5 60794.5 60524.4 60313 59816.8 59318.9 58819.4 58398.8 57983.7 57385.8 56785.4 56247.7 55712 55184 55165.7 55147.3 55130 55115 55099.9 54553.5 54000.8 53477 53009.3 52464.9 52444.3 52423.6 52404.6 52388 52371.6 51949 51518.1 51129.2 50794.3 50526.8 50447.7 50368.4 50312.1 50256.4 50198.9 49997 49792.3 49585.3 49429.3 49287.9 49122.5 48961.5 48827.3 48691.1 48538.1 48524.7 48511.4 48498 48485.9 48474.3 48370.8 48255.7 48137.9 48021.7 47912.1 47873.5 47833.7 47791 47747.5 47700 47678.6 47657 47635.3 47612.9 47590.5 47559.6 47526.7 47483.4 47434.8 47387.4 47386.9 47385.9 47381.7 47377.3 47372.6 47358.3 47343.6 47328.5 47310.8 47292.9 47295.3 47296.7 47292.7 47287.8 47282.2 47283.4 47284.6 47285.5 47286.5 47287.5 47292.1 47296.2 47299.7 47300.5 47300.9 47312.4 47323.8 47334.1 47344.4 47354.7 47357.8 47360.7 47363.5 47366 47368.4 47386.7 47404.7 47422.5 47440.1 47458.2 47459.4 47460.5 47461.7 47463 47464.3 47485.7 47507 47529 47552.1 47575.8 47577.6 47579.5 47581.3 47583.2 47585 47606.8 47628.7 47651.6 47675.8 47700.6 47704.1 47707.6 47711.2 47714.9 47718.6 47740.6 47762.7 47786.8 47812.4 47839 47839.7 47840.5 47841.3 47842.1 47842.9 47864.9 47887.9 47912.2 47939.2 47964.5 47968.3 47972.2 47977 47981.9 47986.9 48003.4 48020 48037.2 48056.1 48073.7 48082.6 48091.6 48101.9 48112.6 48123.7 48133.2 48142.8 48152.5 48162.9 48172.8 48188.6 48204.5 48222.4 48240.6 48260.1 48260.5 48260.9 48261.3 48261.7 48262.1 48278.8 48295.9 48313.3 48332.4 48349.7 48357.6 48365.7 48374.7 48383.8 48393.4 48400 48406.5 48413.1 48420.2 48427.1 48440.3 48453.7 48468.4 48484.4 48499.1 48504.1 48509.4 48515.2 48520.9 48527 48534.5 48542 48549.5 48557.5 48565.4 48576.5 48587.7 48600.1 48613.7 48626.4 48632.3 48638.6 48645.4 48652.3 48659.7 48663.9 48668.1 48672.4 48676.8 48681.4 48690.8 48700.7 48710.9 48722.4 48733.3 48741.2 48749.7 48759 48768.3 48777.8 48779.6 48781.7 48783.9 48786.1 48788.4 48794.4 48800.4 48806.4 48812.7 48819.4 48825.7 48832.2 48839.4 48847.8 48855.7 48860.8 48866.1 48872.4 48878.8 48885.5 48887.9 48891 48894.1 48897.3 48900.7 48902.5 48904.4 48906.2 48908 48910.2 48913.8 48917.8 48921.8 48926.1 48931 48933 48935 48937.8 48941.6 48945.2 48945.9 48946.8 48948.5 48950.5 48952.8 48952.3 48952.7 48953.1 48953.5 48954 48953.6 48953.3 48953.1 48952.9 48952.6 48952.1 48951.6 48951.1 48950.5 48950.4 48948 48946 48944 48942.1 48940.9 48937 48933.3 48930 48927.3 48924.8 48919.6 48914.4 48909.9 48906 48902.2 48895.8 48889.4 48883.6 48878.2 48873.1 48865.5 48858.2 48851.2 48844.1 48837.7 48829 48820.8 48812.5 48804.2 48796.1 48789.3 48782.5 48775.8 48769 48761.3 48758.8 48756.3 48753.8 48751.3 48748.8 48738.3 48727.8 48717.2 48706.7 48696.3 48684.3 48672.7 48661 48649.3 48638 48624.7 48611.9 48599.1 48586.5 48574 48559.7 48545.6 48531.8 48518.1 48504.5 48489.3 48474 48459.2 48444.5 48429.9 48413.7 48397.4 48381.6 48365.9 48350.3 48333.1 48316 48299.1 48282.4 48265.8 48247.8 48229.8 48211.9 48194.4 48176.9 48158 48139.2 48120.4 48101.9 48083.5 48064 48044.4 48024.7 48005.4 47986.1 47965.8 47945.5 47925.1 47904.8 47884.8 47863.8 47842.7 47821.6 47800.6 47779.8 47758.1 47736.3 47714.5 47692.8 47671.3 47649 47626.5 47604.1 47581.7 47559.5 47536.6 47513.5 47490.5 47467.4 47444.6 47421.1 47397.5 47373.9 47350.3 47326.8 47302.7 47278.6 47254.4 47230.3 47206.2 47181.7 47157 47132.4 47107.7 47083.1 47058.1 47032.9 47007.8 46982.7 46957.6 46932.1 46906.5 46880.9 46855.3 46829.8 46803.8 46777.8 46751.8 46725.8 46699.8 46673.5 46647.1 46620.7 46594.3 46567.9 46549.3 46530.8 46512.2 46493.6 46471.5 46464 46456.5 46449.1 46441.6 46434.1 46407 46379.9 46352.8 46325.7 46298.6 46271.2 46243.7 46216.3 46188.9 46161.4 46133.7 46105.9 46078.2 46050.5 46022.7 45994.7 45966.6 45938.6 45910.6 45882.5 45854.2 45825.9 45797.6 45769.3 45741 45712.4 45683.9 45655.3 45626.8 45598.2 45569.4 45540.6 45511.8 45483 45454.1 45425.1 45396.1 45367 45338 45308.9 45279.7 45250.5 45221.2 45192 45162.7 45133.2 45103.8 45074.3 45044.9 45015.4 44985.8 44956.1 44926.5 44896.8 44867.1 44837.3 44807.5 44777.6 44747.8 44717.9 44687.9 44657.9 44627.9 44597.9 44567.8 44537.6 44507.4 44477.3 44447.1 44416.8 44386.5 44356.1 44325.8 44295.4 44265 44234.5 44204 44173.5 44143 44112.4 44081.8 44051.1 44020.4 43989.7 43959 43928.2 43897.4 43866.5 43835.7 43804.9 43773.9 43742.9 43711.9 43680.9 43649.9 43618.8 43587.7 43556.6 43525.4 43494.3 43463 43431.7 43400.4 43369.2 43337.9 43306.5 43275 43243.6 43212.2 43180.7 43149.2 43117.6 43086 43054.5 43022.9 42991.2 42959.5 42927.8 42896 42864.3 42832.5 42800.6 42768.7 42736.9 42705 42673 42641 42609 42577 42545 42512.8 42480.7 42448.5 42416.4 42384.2 42372.8 42361.4 42350 42338.6 42327.3 42306.4 42285.5 42264.6 42243.6 42222.7 42190.3 42157.8 42125.4 42092.9 42060.5 42027.9 41995.3 41962.7 41930.1 41897.5 41864.7 41832 41799.2 41766.5 41733.7 41700.8 41667.9 41635 41602.1 41569.2 41536.1 41503 41470 41436.9 41403.8 41370.6 41337.4 41304.1 41270.9 41237.7 41204.3 41170.9 41137.5 41104.1 41070.7 41037.2 41003.6 40970 40936.5 40902.9 40869.2 40835.4 40801.7 40768 40734.2 40700.3 40666.4 40632.5 40598.6 40564.7 40530.6 40496.5 40462.4 40428.4 40394.2 40360 40325.7 40291.5 40257.2 40222.9 40188.5 40154 40119.6 40085.1 40050.6 40016 39981.4 39946.7 39912.1 39877.4 39842.6 39807.8 39772.9 39738.1 39703.2 39668.2 39633.2 39598.1 39563.1 39528 39492.8 39457.6 39422.4 39387.1 39351.9 39316.5 39281 39245.6 39210.1 39174.6 39139 39103.4 39067.7 39032.1 38996.4 38960.6 38924.7 38888.8 38853 38817.1 38781 38744.9 38708.9 38672.8 38636.6 38600.4 38564.1 38527.8 38491.5 38455.1 38418.6 38382.1 38345.6 38309.1 38272.5 38235.8 38199 38162.2 38125.5 38088.7 38051.7 38014.7 37977.7 37940.7 37903.7 37866.5 37829.3 37792.1 37754.8 37717.5 37680.1 37642.6 37605.2 37567.7 37530.1 37492.5 37454.8 37417.1 37379.3 37341.5 37303.6 37265.7 37227.7 37189.7 37151.7 37113.5 37075.3 37037.1 36998.9 36960.6 36922.1 36883.7 36845.2 36806.7 36768.1 36729.5 36690.7 36652 36613.2 36574.4 36535.5 36496.5 36457.5 36418.4 36379.3 36340.1 36300.9 36261.6 36222.3 36182.9 36143.4 36103.9 36064.4 36024.8 35985.2 35945.4 35905.6 35865.8 35825.9 35786 35745.9 35705.9 35665.8 35625.6 35585.4 35545.1 35504.7 35464.3 35423.9 35383.4 35342.8 35302.2 35261.5 35220.7 35180 35139.1 35098.1 35057.2 35016.1 34975.1 34933.9 34892.7 34851.4 34810.1 34768.7 34727.2 34685.7 34644.1 34602.5 34560.8 34519 34477.2 34435.3 34393.4 34351.4 34309.3 34267.2 34225 34182.8 34140.5 34098.1 34055.7 34013.2 33970.6 33928.1 33885.3 33842.6 33799.8 33756.9 33714 33671 33627.9 33584.8 33541.6 33498.4 33455 33411.7 33368.2 33324.7 33281.2 33237.5 33193.8 33150 33106.2 33062.3 33018.3 32974.3 32930.2 32886 32841.9 32797.5 32753.2 32708.7 32664.2 32619.7 32575.1 32530.4 32485.6 32440.8 32396 32350.9 32305.9 32260.8 32215.6 32170.5 32125.1 32079.8 32034.3 31988.8 31943.3 31897.6 31851.9 31806.1 31760.3 31714.4 31668.3 31622.3 31576.2 31530 31483.8 31437.4 31391 31344.5 31297.9 31251.4 31204.6 31157.9 31111 31064.1 31017.2 30970.1 30923 30875.8 30828.6 30781.3 30733.8 30686.3 30638.8 30591.2 30543.5 30495.7 30447.9 30400 30352 30304 30255.8 30207.6 30159.3 30110.9 30062.6 30014 29965.4 29916.8 29868.1 29819.3 29770.4 29721.4 29672.4 29623.3 29574.2 29524.9 29475.6 29426.2 29376.7 29327.2 29277.5 29227.8 29178 29128.1 29078.3 29028.2 28978.1 28927.9 28877.7 28827.4 28776.9 28726.4 28675.9 28625.2 28574.6 28523.7 28472.8 28421.9 28370.8 28319.8 28268.5 28217.2 28165.9 28114.4 28063 28011.3 27959.6 27907.9 27856 27804.2 27752.1 27700 27647.8 27595.6 27543.3 27490.8 27438.3 27385.8 27333.1 27280.4 27227.5 27174.6 27121.6 27068.5 27015.4 26962.1 26908.7 26855.3 26801.8 26748.3 26694.5 26640.8 26586.9 26533 26479.1 26424.9 26370.7 26316.5 26262.2 26207.8 26153.2 26098.6 26043.9 25989.2 25934.5 25879.5 25824.5 25769.5 25714.4 25659.3 25603.9 25548.5 25493.2 25437.8 25382.3 25326.6 25271 25215.4 25159.7 25104 25048.1 24992.3 24936.5 24880.8 24825 24769.1 24713.3 24657.6 24601.9 24546.2 24490.5 24435.2 24380 24325 24270.2 24215.5 24160.5 24105.5 24050.5 23995.1 23940.4 23891.7 23843 23794.3 23750.4 23701 23635.6 23570.2 23504.7 23430.5 23380.4 23350.3 23320.5 23291.1 23278.4 23273.4 23268.3 23263.2 23258.1 23256.2 23253 23246.6 23240.2 23233.8 23226.6 23200.5 23174.1 23147.5 23120.7 23078.6 23003.1 22934.1 22865.2 22796.4 22739.8 22688.4 22632 22575.6 22519.2 22456.6 22388.8 22320.7 22252.6 22184.5 22116 22044.6 21971.4 21898.1 21824.8 21749.5 21671.2 21591.4 21511.5 21431.7 21350.3 21266 21179.8 21093.6 21007.4 20919.4 20828.4 20735.4 20642.4 20549.3 20454.5 20356.4 20256.1 20155.7 20055.3 19952.9 19847 19738.7 19630.3 19521.9 19411.4 19297 19179.8 19062.5 18945.1 18825.3 18701.2 18574.4 18447.4 18320.3 18190.8 18056.6 17918.6 17780.3 17641.9 17499.9 17352.9 17203.1 17053.1 16903 16750.6 16592.7 16428 16263 16097.6 15926.1 15748.2 15570 15391.7 15213.4 15035.2 14850.3 14650.7 14450.2 14249 14033.6 13810.3 13597 13384.3 13172.3 12970.7 12761.7 12514.1 12264.2 12012 11722.5 11422.2 11166.5 10913.9 10664.1 10459.2 10246.4 9930.64 9606.87 9274.04 8841.14 8391.93 8078.24 7780.41 7501.43 7356.18 7205 6810.11 6365.44 5844.94 5095.13 4316.4 3780.53 3399.19 3255.23 3320.9 3387.15 3373.56 2780.28 1389.73 0