# vtk DataFile Version 2.0
track0
ASCII
DATASET POLYDATA
POINTS 12278 float
-0.0205 0.001 1e-05
-0.02052 0.000999216 1e-05
-0.02054 0.000998592 1e-05
-0.02056 0.000998126 1e-05
-0.02058 0.000997818 1e-05
-0.0206 0.000997665 1e-05
-0.0205 0.00367778 1e-05
-0.02052 0.00367703 1e-05
-0.02054 0.00367643 1e-05
-0.02056 0.00367599 1e-05
-0.02058 0.00367569 1e-05
-0.0206 0.00367554 1e-05
-0.0205 0.00635556 1e-05
-0.02052 0.00635527 1e-05
-0.02054 0.00635505 1e-05
-0.02056 0.00635488 1e-05
-0.02058 0.00635476 1e-05
-0.0206 0.00635471 1e-05
-0.0205 0.00903333 1e-05
-0.02052 0.00903311 1e-05
-0.02054 0.00903293 1e-05
-0.02056 0.0090328 1e-05
-0.02058 0.00903271 1e-05
-0.0206 0.00903266 1e-05
-0.0205 0.0117111 1e-05
-0.02052 0.0117111 1e-05
-0.02054 0.011711 1e-05
-0.02056 0.011711 1e-05
-0.02058 0.011711 1e-05
-0.0206 0.011711 1e-05
-0.0205 0.0143889 1e-05
-0.02052 0.014389 1e-05
-0.02054 0.014389 1e-05
-0.02056 0.0143891 1e-05
-0.02058 0.0143891 1e-05
-0.0206 0.0143891 1e-05
-0.0205 0.0170667 1e-05
-0.02052 0.017067 1e-05
-0.02054 0.0170672 1e-05
-0.02056 0.0170674 1e-05
-0.02058 0.0170675 1e-05
-0.0206 0.0170676 1e-05
-0.0205 0.0197444 1e-05
-0.02052 0.019745 1e-05
-0.02054 0.0197454 1e-05
-0.02056 0.0197457 1e-05
-0.02058 0.0197459 1e-05
-0.0206 0.019746 1e-05
-0.0205 0.0224222 1e-05
-0.02052 0.022423 1e-05
-0.02054 0.0224236 1e-05
-0.02056 0.0224241 1e-05
-0.02058 0.0224244 1e-05
-0.0206 0.0224245 1e-05
-0.0205 0.0251 1e-05
-0.02052 0.0251003 1e-05
-0.02054 0.0251005 1e-05
-0.02056 0.0251007 1e-05
-0.02058 0.0251008 1e-05
-0.0206 0.0251008 1e-05
-0.0205 0.001 1e-05
-0.0203632 0.00100536 1e-05
-0.0202266 0.00101331 1e-05
-0.0200901 0.00102296 1e-05
-0.0200427 0.00102682 1e-05
-0.0198376 0.00104418 1e-05
-0.0196338 0.00107322 1e-05
-0.0194327 0.00111734 1e-05
-0.0192368 0.00118024 1e-05
-0.0190172 0.00124951 1e-05
-0.0189002 0.00128348 1e-05
-0.0187827 0.00131598 1e-05
-0.0186649 0.001347 1e-05
-0.0185469 0.001377 1e-05
-0.0183807 0.00141936 1e-05
-0.0182041 0.00146458 1e-05
-0.0180267 0.00150692 1e-05
-0.0178487 0.0015464 1e-05
-0.0176703 0.00158389 1e-05
-0.0174976 0.0016199 1e-05
-0.0172846 0.00166394 1e-05
-0.0170715 0.00170741 1e-05
-0.0168583 0.00175029 1e-05
-0.0166449 0.00179219 1e-05
-0.0163945 0.00184007 1e-05
-0.0163234 0.00185324 1e-05
-0.0162522 0.00186628 1e-05
-0.016181 0.00187921 1e-05
-0.0161097 0.00189201 1e-05
-0.0160387 0.0019046 1e-05
-0.0157586 0.0019535 1e-05
-0.0154779 0.00199931 1e-05
-0.0151968 0.00204225 1e-05
-0.0149154 0.00208283 1e-05
-0.0146381 0.00212134 1e-05
-0.0143838 0.00215526 1e-05
-0.0141293 0.00218765 1e-05
-0.0138746 0.00221855 1e-05
-0.0136198 0.00224797 1e-05
-0.0132934 0.00228368 1e-05
-0.0132791 0.00228514 1e-05
-0.0132647 0.0022866 1e-05
-0.0132504 0.00228805 1e-05
-0.013236 0.00228949 1e-05
-0.0132213 0.00229098 1e-05
-0.0129775 0.00231543 1e-05
-0.0127337 0.00233865 1e-05
-0.0124897 0.00236061 1e-05
-0.0122456 0.00238129 1e-05
-0.0120025 0.00240057 1e-05
-0.0117547 0.00241908 1e-05
-0.0115067 0.00243626 1e-05
-0.0112587 0.0024523 1e-05
-0.0110106 0.00246734 1e-05
-0.0107632 0.00248135 1e-05
-0.0105252 0.00249391 1e-05
-0.0102872 0.00250547 1e-05
-0.0100491 0.00251602 1e-05
-0.00981105 0.00252575 1e-05
-0.00957337 0.00253471 1e-05
-0.00934491 0.00254261 1e-05
-0.00911643 0.00254974 1e-05
-0.00888792 0.00255611 1e-05
-0.0086594 0.00256172 1e-05
-0.00843108 0.00256669 1e-05
-0.00821175 0.00257085 1e-05
-0.00799241 0.0025744 1e-05
-0.00777306 0.00257732 1e-05
-0.0075537 0.00257954 1e-05
-0.00733443 0.00258116 1e-05
-0.00712387 0.00258214 1e-05
-0.0069133 0.00258258 1e-05
-0.00670273 0.00258246 1e-05
-0.00649216 0.00258165 1e-05
-0.0062816 0.00258021 1e-05
-0.00607944 0.00257823 1e-05
-0.0058773 0.00257569 1e-05
-0.00567516 0.00257261 1e-05
-0.00547303 0.00256879 1e-05
-0.00527083 0.00256424 1e-05
-0.00507675 0.00255918 1e-05
-0.00488269 0.00255349 1e-05
-0.00468865 0.00254718 1e-05
-0.00449464 0.00254004 1e-05
-0.00430044 0.00253198 1e-05
-0.00411412 0.00252337 1e-05
-0.00392784 0.00251397 1e-05
-0.00374159 0.00250378 1e-05
-0.0035554 0.00249265 1e-05
-0.00336883 0.00248027 1e-05
-0.00318995 0.00246723 1e-05
-0.00301115 0.00245312 1e-05
-0.00283245 0.00243788 1e-05
-0.00265386 0.00242135 1e-05
-0.00247443 0.00240329 1e-05
-0.0023027 0.00238441 1e-05
-0.00213114 0.00236401 1e-05
-0.00195982 0.00234172 1e-05
-0.00178875 0.00231757 1e-05
-0.00161577 0.00229125 1e-05
-0.00161543 0.0022912 1e-05
-0.0016151 0.00229114 1e-05
-0.00161476 0.00229109 1e-05
-0.00161442 0.00229103 1e-05
-0.00161408 0.00229098 1e-05
-0.00144955 0.0022641 1e-05
-0.00128542 0.00223488 1e-05
-0.00112171 0.00220337 1e-05
-0.000958445 0.00216963 1e-05
-0.000791418 0.00213259 1e-05
-0.000633135 0.00209449 1e-05
-0.000475556 0.00205357 1e-05
-0.000318718 0.0020099 1e-05
-0.000162832 0.00196295 1e-05
0 0.00190981 1e-05
3.75073e-05 0.00189655 1e-05
7.49138e-05 0.00188302 1e-05
0.000112221 0.00186921 1e-05
0.00014943 0.00185514 1e-05
0.000179845 0.00184339 1e-05
0.000249554 0.00181601 1e-05
0.000318853 0.00178761 1e-05
0.000387729 0.00175819 1e-05
0.000456167 0.00172777 1e-05
0.000528387 0.00169448 1e-05
0.000634886 0.00164351 1e-05
0.000740278 0.0015903 1e-05
0.000844511 0.00153484 1e-05
0.000947622 0.00147733 1e-05
0.00102057 0.0014347 1e-05
0.00102863 0.00142982 1e-05
0.00103669 0.00142494 1e-05
0.00104473 0.00142003 1e-05
0.00105277 0.00141512 1e-05
0.00106088 0.00141013 1e-05
0.00116821 0.00134396 1e-05
0.00127404 0.00127542 1e-05
0.00137827 0.00120449 1e-05
0.00148099 0.00113138 1e-05
0.0015974 0.00104512 1e-05
0.00159742 0.0010451 1e-05
0.00159745 0.00104508 1e-05
0.00159747 0.00104506 1e-05
0.00159749 0.00104504 1e-05
0.00159752 0.00104502 1e-05
0.00169235 0.000971344 1e-05
0.00178578 0.000895892 1e-05
0.00187772 0.000818637 1e-05
0.00196824 0.000739721 1e-05
0.00203872 0.000676373 1e-05
0.00205864 0.000658015 1e-05
0.00207848 0.000639569 1e-05
0.00209824 0.000621034 1e-05
0.00211794 0.000602438 1e-05
0.00213833 0.000583069 1e-05
0.00219162 0.000532115 1e-05
0.00224441 0.00048064 1e-05
0.00229668 0.000428638 1e-05
0.00234841 0.000376102 1e-05
0.00239483 0.000328258 1e-05
0.00245253 0.000267947 1e-05
0.0025096 0.000207039 1e-05
0.00256605 0.00014555 1e-05
0.00262198 8.35978e-05 1e-05
0.00268334 1.44666e-05 1e-05
0.00268586 1.15733e-05 1e-05
0.00268837 8.67882e-06 1e-05
0.00269089 5.78322e-06 1e-05
0.0026934 2.88648e-06 1e-05
0.0026959 0 1e-05
0.0027598 -7.37372e-05 1e-05
0.00282308 -0.000148006 1e-05
0.00288571 -0.000222816 1e-05
0.00294768 -0.000298177 1e-05
0.00300475 -0.000368656 1e-05
0.00305032 -0.000425769 1e-05
0.00309558 -0.000483127 1e-05
0.00314053 -0.000540725 1e-05
0.00318523 -0.000598517 1e-05
0.00323259 -0.000660303 1e-05
0.00325077 -0.000684262 1e-05
0.00326889 -0.000708261 1e-05
0.00328696 -0.000732301 1e-05
0.00330498 -0.000756381 1e-05
0.00332265 -0.000780093 1e-05
0.00339078 -0.000871881 1e-05
0.00345831 -0.000964111 1e-05
0.00352522 -0.0010568 1e-05
0.00359158 -0.00114987 1e-05
0.00365442 -0.00123896 1e-05
0.00368076 -0.0012767 1e-05
0.00370702 -0.00131448 1e-05
0.00373321 -0.00135232 1e-05
0.00375934 -0.0013902 1e-05
0.00378611 -0.0014291 1e-05
0.00383019 -0.00149338 1e-05
0.00387405 -0.0015578 1e-05
0.0039177 -0.00162237 1e-05
0.00396111 -0.0016871 1e-05
0.00400335 -0.00175044 1e-05
0.00407147 -0.00185317 1e-05
0.00413917 -0.00195618 1e-05
0.00420644 -0.00205946 1e-05
0.00427342 -0.00216293 1e-05
0.00434393 -0.00227252 1e-05
0.00435004 -0.00228208 1e-05
0.00435614 -0.00229164 1e-05
0.00436224 -0.0023012 1e-05
0.00436834 -0.00231076 1e-05
0.00437442 -0.00232031 1e-05
0.00445522 -0.00244725 1e-05
0.00453557 -0.00257449 1e-05
0.00461552 -0.00270198 1e-05
0.00469511 -0.00282969 1e-05
0.00477293 -0.00295498 1e-05
0.00479956 -0.00299801 1e-05
0.00482617 -0.00304106 1e-05
0.00485275 -0.00308412 1e-05
0.00487932 -0.00312719 1e-05
0.00490609 -0.00317059 1e-05
0.00496667 -0.0032688 1e-05
0.0050271 -0.0033671 1e-05
0.00508738 -0.00346549 1e-05
0.00514752 -0.00356396 1e-05
0.00520711 -0.0036616 1e-05
0.00526021 -0.00374868 1e-05
0.00531327 -0.00383579 1e-05
0.00536629 -0.00392292 1e-05
0.00541934 -0.00401003 1e-05
0.00547262 -0.00409743 1e-05
0.00551544 -0.00416756 1e-05
0.00555823 -0.00423772 1e-05
0.00560099 -0.0043079 1e-05
0.00564372 -0.00437808 1e-05
0.00568639 -0.0044481 1e-05
0.00575782 -0.00456523 1e-05
0.0058293 -0.00468232 1e-05
0.00590082 -0.00479939 1e-05
0.00597248 -0.00491638 1e-05
0.00604356 -0.00503194 1e-05
0.00607953 -0.0050902 1e-05
0.00611551 -0.00514845 1e-05
0.0061515 -0.0052067 1e-05
0.00618751 -0.00526494 1e-05
0.00622362 -0.00532324 1e-05
0.00630268 -0.00545063 1e-05
0.00638194 -0.0055779 1e-05
0.00646138 -0.00570505 1e-05
0.00654111 -0.00583203 1e-05
0.00661893 -0.00595518 1e-05
0.00666238 -0.00602347 1e-05
0.00670587 -0.00609174 1e-05
0.00674942 -0.00615997 1e-05
0.00679305 -0.00622815 1e-05
0.00683705 -0.00629668 1e-05
0.0069094 -0.00640897 1e-05
0.006982 -0.00652109 1e-05
0.00705486 -0.00663304 1e-05
0.00712802 -0.0067448 1e-05
0.00719878 -0.00685209 1e-05
0.0072688 -0.00695747 1e-05
0.00733903 -0.0070627 1e-05
0.00740948 -0.00716779 1e-05
0.00748024 -0.00727267 1e-05
0.0075525 -0.00737904 1e-05
0.00759862 -0.00744646 1e-05
0.00764488 -0.00751379 1e-05
0.00769127 -0.00758103 1e-05
0.0077378 -0.00764817 1e-05
0.00778313 -0.00771325 1e-05
0.00790091 -0.00788143 1e-05
0.00801946 -0.00804908 1e-05
0.00813878 -0.00821617 1e-05
0.00825911 -0.00838254 1e-05
0.00837203 -0.00853662 1e-05
0.00837875 -0.00854566 1e-05
0.00838547 -0.0085547 1e-05
0.00839219 -0.00856374 1e-05
0.00839891 -0.00857277 1e-05
0.00840565 -0.00858183 1e-05
0.00851763 -0.00873206 1e-05
0.00863044 -0.00888166 1e-05
0.00874411 -0.00903062 1e-05
0.00885866 -0.00917889 1e-05
0.00896551 -0.00931529 1e-05
0.00902884 -0.00939508 1e-05
0.00909242 -0.00947467 1e-05
0.00915626 -0.00955405 1e-05
0.0092204 -0.0096332 1e-05
0.00928661 -0.0097143 1e-05
0.00934201 -0.00978162 1e-05
0.00939761 -0.00984877 1e-05
0.00945342 -0.00991575 1e-05
0.00950944 -0.00998255 1e-05
0.0095636 -0.0100467 1e-05
[...]
POINT_DATA 12278
 FIELD attributes 2
p 1 12278 float
177029 177111 177183 177247 177301 177345
108962 108981 108997 109011 109023 109034
87769.1 87778.7 87788 87797.2 87806.1 87814.6
79951.5 79957.8 79964 79970.1 79976.2 79982.2
77160.7 77169.9 77179.1 77188.3 77197.6 77206.8
77578.2 77591.7 77605.3 77618.9 77632.4 77646
81111.4 81123.9 81136.1 81148.2 81160.1 81171.9
90938 90957.7 90976.7 90995 91012.6 91029.5
117370 117403 117433 117461 117487 117511
215489 215299 215107 214913 214717 214519
177029 173424 169097 164518 162852 158920 155538 152887 144722 134680 129238 123809 119871 119260 118408 112363 106463 102342 101446 100580 99597.3 98615.1 97188.5 95720.1 94004.5 93638 93271 92903.5 92422.5 91924.8 90005.2 88201.3 86687.3 85900 85123.2 84437.4 83772.6 83122.8 82471 81637.1 81602.1 81573.2 81545.1 81517.1 81488.2 80955.5 80423.2 79891.4 79360.1 78935 78508.8 78099.6 77701.9 77326.3 76960.3 76610.3 76260 75936.3 75634.8 75333.7 75044.2 74754.5 74475.9 74213.1 73950.5 73696.8 73443.1 73193 72956.8 72720.7 72491.7 72262.8 72032.3 71812.7 71593.5 71379.9 71166.3 70947.6 70736.8 70526.1 70318.9 70111.9 69898.9 69686.5 69474.3 69262.4 69050.9 68835.6 68607.6 68380 68147 67911.4 67667.3 67414.6 67148.7 66868.4 66554.7 66242.5 65931.9 65618.9 65618.1 65617.2 65616.3 65615.4 65614.5 65223.9 64839 64459.7 64062.2 63582.8 63067.4 62557.7 61857.3 61084.4 60271.5 60022.2 59783.3 59555.3 59327.9 59142 58586.4 58028.7 57468.9 56996.7 56529.6 55925.2 55322.5 54782.9 54241.9 53854 53796.8 53739.6 53685.2 53638.4 53591 53038 52477.9 51959.8 51487.7 50939.2 50939 50938.8 50938.7 50938.6 50938.5 50510.8 50075.6 49672.6 49336.6 49067.4 48968.9 48870 48799.6 48730.5 48658.4 48469.5 48278.2 48085.1 47940.4 47807.9 47635.7 47467.5 47328.2 47186.8 47028 47021.2 47014.4 47007.6 47001.4 46995.6 46890.5 46778.2 46663.4 46550.2 46443.2 46407.8 46371.1 46331.6 46291.4 46247.7 46227.4 46206.9 46186.4 46165 46143.8 46118.4 46091.6 46054.5 46012.1 45970.6 45972.9 45975 45974.3 45973.4 45972.4 45961.1 45949.3 45937.1 45922 45906.7 45916.4 45925.4 45929.8 45933.7 45937.3 45936.4 45935.5 45934.7 45933.6 45932.5 45945.9 45959.4 45971.9 45982.6 45992.7 46003 46013.2 46022.9 46032.6 46042.3 46053.8 46065.1 46076.2 46087.1 46098 46116.4 46134.7 46153.1 46171.6 46190.1 46198.6 46207.1 46215.7 46224.7 46233.7 46256.3 46279 46302.3 46326.2 46349.9 46357.2 46364.5 46372.2 46380.3 46388.5 46411.7 46435 46459.1 46484.4 46509.1 46517.9 46526.7 46536.2 46546.2 46556.4 46576.1 46595.9 46616.3 46638.3 46659.6 46673.3 46687 46702.5 46718.5 46735 46746.7 46758.4 46770.2 46783.1 46795.6 46817.4 46839.5 46864.9 46891 46916.7 46917.6 46918.6 46919.8 46921 46922.2 46943.5 46965 46986.9 47010.9 47033.4 47042.7 47052.1 47062.8 47073.6 47084.8 47094.7 47104.6 47114.6 47125.3 47135.6 47152.7 47170 47188.9 47208.6 47227.9 47230.3 47232.7 47235.4 47238.1 47240.9 47255.4 47270 47284.8 47300.6 47315.7 47329.2 47343.1 47358.3 47373.6 47390.1 47390.4 47390.8 47391.1 47391.5 47391.9 47406.3 47421 47435.8 47451.7 47466.9 47478.9 47491.5 47505 47518.7 47531.7 47532.1 47532.5 47533 47533.4 47533.9 47545.9 47557.9 47570 47582.9 47595.5 47605.8 47616.1 47627.7 47639.8 47651.8 47655.6 47659.8 47664.2 47668.6 47673.3 47679.3 47685.4 47691.5 47697.9 47704.5 47713.3 47722.3 47732 47742.9 47753.3 47760.9 47769 47777.8 47786.7 47795.8 47797.8 47800 47802.4 47804.7 47807.1 47812.7 47818.2 47823.8 47829.5 47835.7 47841.9 47848.4 47855.2 47863.3 47871.1 47876.1 47881.1 47887.3 47893.9 47900.6 47904.1 47908.6 47913.1 47917.6 47922.6 47923 47923.4 47923.8 47924.2 47924.6 47928.7 47932.8 47936.9 47941 47946 47948.3 47950.8 47953.7 47957.5 47961.4 47962.5 47963.5 47965.4 47968.1 47970.8 47970.7 47971.2 47972 47972.8 47974.2 47973.3 47973 47972.7 47972.4 47972 47972 47971.9 47971.9 47971.9 47971.9 47970.5 47969.1 47967.7 47966.2 47965.4 47962.2 47959.6 47957 47954.7 47952.8 47948.4 47944 47940.3 47937.2 47934.1 47928.5 47922.9 47918 47913.6 47909.3 47902.6 47896 47889.9 47884.1 47878.6 47870.8 47863.4 47856.1 47848.8 47842.1 47833.3 47824.9 47816.5 47808 47799.9 47791.5 47783.3 47775.1 47766.8 47757.2 47756.2 47755.2 47754.2 47753.2 47752.2 47741.7 47731.2 47720.7 47710.2 47699.8 47688 47676.5 47664.9 47653.4 47642 47629 47616.5 47604 47591.4 47579.1 47565.1 47551.4 47537.9 47524.5 47511.2 47496.3 47481.5 47467.1 47452.7 47438.4 47422.7 47406.9 47391.6 47376.3 47361.1 47344.5 47327.9 47311.6 47295.5 47279.4 47262 47244.6 47227.4 47210.4 47193.5 47175.3 47157.2 47139.1 47121.3 47103.6 47084.7 47065.9 47047 47028.5 47009.9 46990.4 46970.9 46951.3 46931.9 46912.7 46892.5 46872.3 46852.1 46832 46812.1 46791.3 46770.5 46749.6 46728.8 46708.2 46686.9 46665.5 46644 46622.6 46601.4 46579.5 46557.5 46535.5 46513.5 46491.7 46469.4 46446.8 46424.3 46401.7 46379.4 46356.5 46333.5 46310.4 46287.4 46264.5 46241.2 46217.7 46194.2 46170.7 46147.3 46123.5 46099.6 46075.7 46051.7 46027.9 46003.7 45979.4 45955 45930.7 45906.4 45881.8 45857.1 45832.4 45807.6 45783 45758 45732.9 45707.8 45682.8 45657.7 45632.4 45607 45581.6 45556.1 45530.8 45505.1 45479.4 45453.6 45427.9 45402.2 45376.2 45350.2 45324.1 45298.1 45272.1 45245.8 45219.5 45193.2 45166.9 45140.6 45114 45087.5 45060.9 45034.3 45007.7 44980.9 44954.1 44927.2 44900.4 44873.6 44846.5 44819.5 44792.4 44765.3 44738.2 44711 44683.7 44656.4 44629.1 44601.8 44574.3 44546.8 44519.2 44491.7 44464.2 44436.5 44408.8 44381 44353.3 44325.6 44297.7 44269.7 44241.8 44213.9 44186 44157.9 44129.7 44101.6 44073.5 44045.4 44017.1 43988.8 43960.4 43932.1 43903.8 43875.4 43846.9 43818.4 43789.9 43761.4 43732.7 43704 43675.4 43646.7 43618 43589.2 43560.4 43531.5 43502.7 43473.8 43444.8 43415.8 43386.8 43357.7 43328.7 43299.5 43270.3 43241.1 43211.9 43182.7 43153.4 43124 43094.7 43065.3 43035.9 43006.4 42976.9 42947.3 42917.8 42888.3 42858.6 42828.9 42799.2 42769.5 42739.7 42709.9 42680 42650.1 42620.2 42590.4 42560.3 42530.3 42500.2 42470.2 42440.1 42409.9 42379.7 42349.5 42319.2 42289 42258.6 42228.2 42197.8 42167.4 42137 42106.4 42075.8 42045.2 42014.7 41984.1 41953.3 41922.6 41891.8 41861 41830.2 41799.3 41768.4 41737.4 41706.5 41675.5 41644.4 41613.3 41582.1 41551 41519.8 41488.5 41457.2 41425.9 41394.5 41363.2 41331.7 41300.2 41268.6 41237.1 41205.5 41173.9 41142.1 41110.4 41078.7 41046.9 41015.1 40983.1 40951.2 40919.3 40887.3 40855.2 40823.1 40791 40758.8 40726.7 40694.4 40662 40629.7 40597.3 40565 40532.5 40499.9 40467.3 40434.8 40402.2 40369.5 40336.7 40303.9 40271.1 40238.3 40205.4 40172.4 40139.4 40106.4 40073.3 40040.2 40007 39973.7 39940.5 39907.2 39873.8 39840.4 39806.9 39773.5 39740 39706.4 39672.7 39639 39605.3 39571.6 39537.7 39503.8 39469.9 39435.9 39402 39367.9 39333.7 39299.5 39265.4 39231.1 39196.8 39162.4 39128 39093.6 39059.1 39024.5 38989.9 38955.2 38920.6 38885.8 38851 38816.1 38781.2 38746.3 38711.3 38676.2 38641 38605.9 38570.7 38535.5 38500.1 38464.7 38429.3 38393.9 38358.4 38322.7 38287.1 38251.4 38215.7 38179.9 38144 38108.1 38072.1 38036.2 38000.2 37964 37927.8 37891.6 37855.3 37819 37782.6 37746.1 37709.7 37673.1 37636.6 37599.9 37563.1 37526.4 37489.6 37452.7 37415.7 37378.7 37341.7 37304.6 37267.5 37230.2 37192.9 37155.6 37118.2 37080.8 37043.3 37005.7 36968.1 36930.4 36892.7 36854.9 36817 36779.1 36741.2 36703.2 36665.1 36626.9 36588.7 36550.5 36512.2 36473.8 36435.4 36396.9 36358.4 36319.8 36281.1 36242.3 36203.5 36164.7 36125.9 36086.8 36047.8 36008.7 35969.6 35930.4 35891.1 35851.8 35812.4 35772.9 35733.5 35693.9 35654.2 35614.5 35574.8 35535 35495.1 35455.1 35415.1 35375.1 35335 35294.8 35254.5 35214.2 35173.9 35133.5 35092.9 35052.3 35011.7 34971 34930.3 34889.5 34848.6 34807.7 34766.7 34725.6 34684.5 34643.3 34602 34560.7 34519.4 34477.9 34436.3 34394.8 34353.1 34311.5 34269.6 34227.8 34185.9 34143.9 34102 34059.8 34017.6 33975.4 33933.1 33890.8 33848.3 33805.8 33763.3 33720.7 33678 33635.2 33592.4 33549.5 33506.6 33463.6 33420.4 33377.3 33334.1 33290.8 33247.5 33204 33160.5 33117 33073.3 33029.7 32985.9 32942.1 32898.2 32854.2 32810.2 32766 32721.9 32677.6 32633.3 32589 32544.5 32500 32455.4 32410.7 32366.1 32321.2 32276.4 32231.4 32186.4 32141.4 32096.2 32051 32005.7 31960.4 31915 31869.5 31823.9 31778.3 31732.6 31686.8 31640.9 31595 31549 31503 31456.9 31410.6 31364.4 31318 31271.6 31225.2 31178.5 31131.9 31085.2 31038.4 30991.6 30944.6 30897.6 30850.5 30803.4 30756.2 30708.9 30661.5 30614.1 30566.6 30519 30471.3 30423.6 30375.8 30327.9 30280 30231.9 30183.8 30135.6 30087.3 30039.1 29990.6 29942.1 29893.6 29844.9 29796.3 29747.4 29698.6 29649.6 29600.6 29551.6 29502.3 29453.1 29403.8 29354.4 29305 29255.3 29205.7 29156 29106.2 29056.4 29006.4 28956.4 28906.3 28856.1 28805.9 28755.5 28705.1 28654.6 28604 28553.4 28502.6 28451.8 28400.9 28349.9 28299 28247.7 28196.5 28145.2 28093.8 28042.5 27990.8 27939.2 27887.5 27835.7 27783.9 27731.9 27679.9 27627.7 27575.5 27523.3 27470.9 27418.4 27365.9 27313.3 27260.7 27207.8 27154.9 27101.9 27048.9 26995.9 26942.6 26889.3 26835.9 26782.4 26729 26675.2 26621.5 26567.7 26513.8 26460 26405.8 26351.6 26297.4 26243.1 26188.8 26134.3 26079.7 26025.1 25970.4 25915.7 25860.7 25805.7 25750.7 25695.7 25640.6 25585.2 25529.9 25474.6 25419.2 25363.8 25308.1 25252.5 25196.9 25141.3 25085.6 25029.7 24973.9 24918.2 24862.5 24806.7 24750.8 24695 24639.4 24583.7 24528 24472.3 24417 24361.9 24306.8 24252.1 24197.4 24142.5 24087.5 24032.5 23977.1 23922.4 23873.7 23825.1 23776.5 23732.7 23683.5 23618.2 23552.7 23487.2 23412.7 23361.5 23331.1 23301.1 23271.3 23257.1 23253 23248.8 23244.6 23240.5 23238.9 23236.3 23231 23225.7 23220.5 23214.7 23187.8 23160.6 23133.2 23105.5 23061.9 22986 22917 22848.1 22779.2 22722.9 22671.8 22615.5 22559.1 22502.8 22440.1 22372.3 22304.3 22236.2 22168 22099.6 22028.3 21955.1 21881.8 21808.6 21733.2 21655 21575.2 21495.4 21415.6 21334.2 21249.9 21163.8 21077.6 20991.5 20903.5 20812.5 20719.6 20626.6 20533.6 20438.8 20340.7 20240.5 20140.2 20039.8 19937.5 19831.6 19723.4 19615.1 19506.7 19396.2 19281.9 19164.8 19047.6 18930.3 18810.5 18686.5 18559.8 18432.8 18305.8 18176.4 18042.3 17904.4 17766.2 17627.9 17486 17339 17189.4 17039.5 16889.5 16737.3 16579.5 16414.9 16250 16084.8 15913.3 15735.6 15557.4 15379.3 15201.1 15023 14838.4 14638.9 14438.5 14237.4 14022.2 13799 13585.9 13373.4 13161.5 12960.1 12751.2 12503.7 12254 12002.1 11712.8 11412.6 11157.3 10904.8 10655 10450.3 10237.7 9921.71 9598.13 9265.97 8833.29 8384.3 8071.55 7773.93 7494.34 7349.24 7198.21 6801.73 6357.27 5839.03 5089.66 4311.37 3779.21 3398.29 3250.94 3316.67 3382.98 3362.04 2777.14 1388.16 0